version 3
run General-0-20230509-15:22:52-5976
attr configname General
attr datetime 20230509-15:22:52
attr datetimef 20230509-152252
attr experiment General
attr inifile omnetpp.ini
attr iterationvars ""
attr iterationvarsd ""
attr iterationvarsf ""
attr measurement ""
attr network Network
attr processid 5976
attr repetition 0
attr replication #0
attr resultdir results
attr runnumber 0
attr seedset 0
config network Network
config sim-time-limit 200s
config Network.nodeTx.gen.generationInterval exponential(0.001)
config Network.queue.serviceTime exponential(0.001)
config Network.nodeTx.gen.packetByteSize 12500
config Network.queue.bufferSize 200
config Network.nodeRx.queue.bufferSize 200
config Network.nodeTx.queue.bufferSize 2000000

vector 0 Network.nodeTx.gen "Packets sent vector" ETV
vector 1 Network.nodeTx.queue "" ETV
vector 2 Network.queue "" ETV
0	0	0	1
0	1	0.000795874505	2
0	4	0.001694434893	3
0	6	0.002950365651	4
0	8	0.004809969863	5
0	10	0.005733192994	6
0	12	0.00768473833	7
0	14	0.00847193947	8
0	16	0.010350903524	9
0	18	0.010901952011	10
0	20	0.011878958437	11
0	22	0.012917117738	12
0	24	0.013402245902	13
0	26	0.013977765099	14
0	28	0.014330924238	15
0	30	0.01655444866	16
0	32	0.016612833329	17
0	34	0.019927745609	18
0	36	0.02024610175	19
0	38	0.020729703855	20
0	40	0.021379150203	21
0	42	0.022948046321	22
0	44	0.024620257521	23
0	46	0.025372931634	24
0	48	0.026026814201	25
0	50	0.026866247054	26
0	52	0.027365119063	27
0	54	0.029963373149	28
0	56	0.031771742413	29
0	58	0.031845427768	30
0	60	0.032257005764	31
0	62	0.03234816679	32
0	64	0.033392779298	33
0	66	0.033413204886	34
0	68	0.033872453023	35
0	70	0.035659940686	36
0	72	0.038810110615	37
0	74	0.040315894874	38
0	76	0.040467125728	39
0	78	0.042507439986	40
0	80	0.044548332202	41
0	82	0.048393554071	42
0	84	0.049035263244	43
0	86	0.050640502801	44
0	88	0.052254504876	45
0	90	0.052873434336	46
0	92	0.053608398757	47
0	94	0.055124934731	48
0	96	0.056260873673	49
0	98	0.056386748082	50
0	100	0.057661975784	51
0	102	0.058683407658	52
0	104	0.059555728853	53
0	106	0.059710458534	54
0	108	0.060481293192	55
0	110	0.06337571367	56
0	112	0.06479707835	57
0	114	0.065534905642	58
0	116	0.065646851803	59
0	118	0.066182417523	60
0	120	0.066824112225	61
0	122	0.067131392577	62
0	124	0.067337595859	63
0	126	0.068825850685	64
0	128	0.07016114087	65
0	130	0.070770223293	66
0	132	0.071014271784	67
0	134	0.07185460649	68
0	136	0.071999884517	69
0	138	0.072018853086	70
0	140	0.072410623897	71
0	142	0.073372004836	72
0	144	0.073534141325	73
0	146	0.074481138002	74
0	148	0.074732579934	75
0	150	0.075692127911	76
0	152	0.07618068496	77
0	154	0.079058599981	78
0	156	0.081387513355	79
0	158	0.08253265231	80
0	160	0.083130398387	81
0	162	0.083575916882	82
0	164	0.084525411465	83
0	166	0.085099943872	84
0	168	0.087426294934	85
0	170	0.088622402733	86
0	172	0.088726963959	87
0	174	0.088789079249	88
0	176	0.092289292933	89
0	178	0.093388205401	90
0	180	0.094447039532	91
0	182	0.095557636978	92
0	184	0.095745063044	93
0	186	0.09598126975	94
0	188	0.096424673779	95
0	190	0.096562702467	96
0	192	0.097951745157	97
0	194	0.098330707121	98
0	196	0.099266768681	99
0	198	0.099718870741	100
0	200	0.100111983298	101
0	205	0.100956411092	102
0	207	0.100995594248	103
0	209	0.101572918559	104
0	211	0.102578789564	105
0	213	0.10703328641	106
0	215	0.110226233052	107
0	217	0.11033386816	108
0	219	0.111391694573	109
0	221	0.111625996092	110
0	223	0.112634015337	111
0	225	0.112809928882	112
0	227	0.118170029232	113
0	229	0.119228771947	114
0	231	0.120100687801	115
0	233	0.120392768334	116
0	235	0.120927833011	117
0	237	0.121555774592	118
0	239	0.122199555594	119
0	241	0.122479832602	120
0	243	0.123456696676	121
0	245	0.123629824132	122
0	247	0.124042325362	123
0	249	0.124159280772	124
0	251	0.125282449074	125
0	253	0.126350521271	126
0	255	0.126732077114	127
0	257	0.126880789383	128
0	259	0.128387424716	129
0	261	0.128606305313	130
0	263	0.131593495205	131
0	265	0.132053509163	132
0	267	0.133139778544	133
0	269	0.134860110202	134
0	271	0.13487377478	135
0	273	0.134975919662	136
0	275	0.135951021596	137
0	277	0.137770840515	138
0	279	0.138890654881	139
0	281	0.138991689656	140
0	283	0.142565278028	141
0	285	0.146314309488	142
0	287	0.148419630789	143
0	289	0.149051967385	144
0	291	0.149764550978	145
0	293	0.153526478263	146
0	295	0.153583805189	147
0	297	0.154512283686	148
0	299	0.155112230573	149
0	301	0.156456475845	150
0	303	0.156476665973	151
0	305	0.156516642272	152
0	307	0.157099520661	153
0	309	0.157431930902	154
0	311	0.161323501025	155
0	313	0.16145155779	156
0	315	0.161896977252	157
0	317	0.162248153341	158
0	319	0.162903799625	159
0	321	0.163030188261	160
0	323	0.164197061788	161
0	325	0.164579762737	162
0	327	0.166703999934	163
0	329	0.16723888431	164
0	331	0.169742796093	165
0	333	0.169809093494	166
0	335	0.170053488942	167
0	337	0.171232678469	168
0	339	0.172065521985	169
0	341	0.172901619517	170
0	343	0.17490486004	171
0	345	0.17521327488	172
0	347	0.175924522817	173
0	349	0.176665281767	174
0	351	0.179150864124	175
0	353	0.179249514432	176
0	355	0.18178981894	177
0	357	0.182647714581	178
0	359	0.182734485063	179
0	361	0.185383740992	180
0	363	0.185709081408	181
0	365	0.186092641622	182
0	367	0.186102042373	183
0	369	0.187202888283	184
0	371	0.189050215934	185
0	373	0.189191546648	186
0	375	0.190233327302	187
0	377	0.191493261112	188
0	379	0.193334543583	189
0	381	0.19367619775	190
0	383	0.193983715474	191
0	385	0.194186065913	192
0	387	0.194693266036	193
0	389	0.195576395078	194
0	391	0.196381192478	195
0	393	0.196401504937	196
0	395	0.196581757189	197
0	397	0.198347498261	198
0	399	0.198809229157	199
0	401	0.198813935697	200
0	403	0.198972277203	201
0	405	0.200104911345	202
1	2	0.000795874505	1
1	5	0.001694434893	1
1	7	0.002950365651	2
1	9	0.004809969863	3
1	11	0.005733192994	4
1	13	0.00768473833	5
1	15	0.00847193947	6
1	17	0.010350903524	7
1	19	0.010901952011	8
1	21	0.011878958437	9
1	23	0.012917117738	10
1	25	0.013402245902	11
1	27	0.013977765099	12
1	29	0.014330924238	13
1	31	0.01655444866	14
1	33	0.016612833329	15
1	35	0.019927745609	16
1	37	0.02024610175	17
1	39	0.020729703855	18
1	41	0.021379150203	19
1	43	0.022948046321	20
1	45	0.024620257521	21
1	47	0.025372931634	22
1	49	0.026026814201	23
1	51	0.026866247054	24
1	53	0.027365119063	25
1	55	0.029963373149	26
1	57	0.031771742413	27
1	59	0.031845427768	28
1	61	0.032257005764	29
1	63	0.03234816679	30
1	65	0.033392779298	31
1	67	0.033413204886	32
1	69	0.033872453023	33
1	71	0.035659940686	34
1	73	0.038810110615	35
1	75	0.040315894874	36
1	77	0.040467125728	37
1	79	0.042507439986	38
1	81	0.044548332202	39
1	83	0.048393554071	40
1	85	0.049035263244	41
1	87	0.050640502801	42
1	89	0.052254504876	43
1	91	0.052873434336	44
1	93	0.053608398757	45
1	95	0.055124934731	46
1	97	0.056260873673	47
1	99	0.056386748082	48
1	101	0.057661975784	49
1	103	0.058683407658	50
1	105	0.059555728853	51
1	107	0.059710458534	52
1	109	0.060481293192	53
1	111	0.06337571367	54
1	113	0.06479707835	55
1	115	0.065534905642	56
1	117	0.065646851803	57
1	119	0.066182417523	58
1	121	0.066824112225	59
1	123	0.067131392577	60
1	125	0.067337595859	61
1	127	0.068825850685	62
1	129	0.07016114087	63
1	131	0.070770223293	64
1	133	0.071014271784	65
1	135	0.07185460649	66
1	137	0.071999884517	67
1	139	0.072018853086	68
1	141	0.072410623897	69
1	143	0.073372004836	70
1	145	0.073534141325	71
1	147	0.074481138002	72
1	149	0.074732579934	73
1	151	0.075692127911	74
1	153	0.07618068496	75
1	155	0.079058599981	76
1	157	0.081387513355	77
1	159	0.08253265231	78
1	161	0.083130398387	79
1	163	0.083575916882	80
1	165	0.084525411465	81
1	167	0.085099943872	82
1	169	0.087426294934	83
1	171	0.088622402733	84
1	173	0.088726963959	85
1	175	0.088789079249	86
1	177	0.092289292933	87
1	179	0.093388205401	88
1	181	0.094447039532	89
1	183	0.095557636978	90
1	185	0.095745063044	91
1	187	0.09598126975	92
1	189	0.096424673779	93
1	191	0.096562702467	94
1	193	0.097951745157	95
1	195	0.098330707121	96
1	197	0.099266768681	97
1	199	0.099718870741	98
1	201	0.100111983298	99
1	206	0.100956411092	99
1	208	0.100995594248	100
1	210	0.101572918559	101
1	212	0.102578789564	102
1	214	0.10703328641	103
1	216	0.110226233052	104
1	218	0.11033386816	105
1	220	0.111391694573	106
1	222	0.111625996092	107
1	224	0.112634015337	108
1	226	0.112809928882	109
1	228	0.118170029232	110
1	230	0.119228771947	111
1	232	0.120100687801	112
1	234	0.120392768334	113
1	236	0.120927833011	114
1	238	0.121555774592	115
1	240	0.122199555594	116
1	242	0.122479832602	117
1	244	0.123456696676	118
1	246	0.123629824132	119
1	248	0.124042325362	120
1	250	0.124159280772	121
1	252	0.125282449074	122
1	254	0.126350521271	123
1	256	0.126732077114	124
1	258	0.126880789383	125
1	260	0.128387424716	126
1	262	0.128606305313	127
1	264	0.131593495205	128
1	266	0.132053509163	129
1	268	0.133139778544	130
1	270	0.134860110202	131
1	272	0.13487377478	132
1	274	0.134975919662	133
1	276	0.135951021596	134
1	278	0.137770840515	135
1	280	0.138890654881	136
1	282	0.138991689656	137
1	284	0.142565278028	138
1	286	0.146314309488	139
1	288	0.148419630789	140
1	290	0.149051967385	141
1	292	0.149764550978	142
1	294	0.153526478263	143
1	296	0.153583805189	144
1	298	0.154512283686	145
1	300	0.155112230573	146
1	302	0.156456475845	147
1	304	0.156476665973	148
1	306	0.156516642272	149
1	308	0.157099520661	150
1	310	0.157431930902	151
1	312	0.161323501025	152
1	314	0.16145155779	153
1	316	0.161896977252	154
1	318	0.162248153341	155
1	320	0.162903799625	156
1	322	0.163030188261	157
1	324	0.164197061788	158
1	326	0.164579762737	159
1	328	0.166703999934	160
1	330	0.16723888431	161
1	332	0.169742796093	162
1	334	0.169809093494	163
1	336	0.170053488942	164
1	338	0.171232678469	165
1	340	0.172065521985	166
1	342	0.172901619517	167
1	344	0.17490486004	168
1	346	0.17521327488	169
1	348	0.175924522817	170
1	350	0.176665281767	171
1	352	0.179150864124	172
1	354	0.179249514432	173
1	356	0.18178981894	174
1	358	0.182647714581	175
1	360	0.182734485063	176
1	362	0.185383740992	177
1	364	0.185709081408	178
1	366	0.186092641622	179
1	368	0.186102042373	180
1	370	0.187202888283	181
1	372	0.189050215934	182
1	374	0.189191546648	183
1	376	0.190233327302	184
1	378	0.191493261112	185
1	380	0.193334543583	186
1	382	0.19367619775	187
1	384	0.193983715474	188
1	386	0.194186065913	189
1	388	0.194693266036	190
1	390	0.195576395078	191
1	392	0.196381192478	192
1	394	0.196401504937	193
1	396	0.196581757189	194
1	398	0.198347498261	195
1	400	0.198809229157	196
1	402	0.198813935697	197
1	404	0.198972277203	198
1	406	0.200104911345	199
2	203	0.100895874505	1
2	408	0.200895874505	1

