version 3
run General-0-20230516-00:10:17-94018
attr configname General
attr datetime 20230516-00:10:17
attr datetimef 20230516-001017
attr experiment General
attr inifile omnetpp.ini
attr iterationvars ""
attr iterationvarsd ""
attr iterationvarsf ""
attr measurement ""
attr network Network
attr processid 94018
attr repetition 0
attr replication #0
attr resultdir results
attr runnumber 0
attr seedset 0
config network Network
config sim-time-limit 200s
config Network.nodeTx.gen.generationInterval exponential(0.2)
config Network.nodeTx.gen.packetByteSize 12500
config Network.queue1.serviceTime 0
config Network.queue2.serviceTime 0
config Network.queue1.bufferSize 200
config Network.queue2.bufferSize 200
config Network.nodeRx.queue.bufferSize 200
config Network.nodeTx.queue.bufferSize 20000

vector 0 Network.nodeTx.gen "Packets Generated" ETV
vector 1 Network.nodeTx.queue "Buffer Size" ETV
vector 2 Network.queue1 "Buffer Size" ETV
vector 3 Network.nodeRx.queue "Buffer Size" ETV
vector 4 Network.queue2 "Buffer Size" ETV
vector 5 Network.nodeRx.sink "Packets received" ETV
vector 6 Network.nodeRx.sink Delay ETV
0	1	0.159174900913	1
0	7	0.33888697861	2
0	29	0.590073130219	3
0	45	0.961993972634	4
0	53	1.146638598928	5
0	75	1.536947666105	6
0	83	1.694387894101	7
0	105	2.070180704942	8
0	113	2.180390402276	9
0	126	2.375791687555	10
0	142	2.583423547688	11
0	151	2.680449180432	12
0	160	2.795553019809	13
0	163	2.866184847637	14
0	196	3.310889732044	15
0	199	3.322566665863	16
0	230	3.985549121849	17
0	233	4.049220350017	18
0	240	4.145940771007	19
0	251	4.275830040657	20
0	277	4.589609264182	21
0	292	4.924051504247	22
0	304	5.07458632691	23
0	319	5.205362840354	24
0	327	5.373249410934	25
0	338	5.473023812737	26
0	370	5.992674629907	27
0	386	6.354348482762	28
0	389	6.369085553855	29
0	393	6.451401153104	30
0	398	6.469633358329	31
0	412	6.678555859991	32
0	414	6.682640977671	33
0	423	6.774490605122	34
0	440	7.13198813781	35
0	462	7.762022123545	36
0	473	8.063178975272	37
0	476	8.093425146005	38
0	493	8.501487997593	39
0	501	8.909666440775	40
0	504	9.678710814603	41
0	507	9.807052649139	42
0	510	10.128100560551	43
0	547	10.45090097553	44
0	553	10.574686867455	45
0	569	10.721679751693	46
0	596	11.024986946491	47
0	613	11.252174734833	48
0	616	11.277349616721	49
0	631	11.532395157166	50
0	647	11.736681532036	51
0	659	11.911145771044	52
0	664	11.942091707144	53
0	675	12.096258638837	54
0	707	12.675142734434	55
0	722	12.959415670453	56
0	734	13.106981128804	57
0	737	13.129370360931	58
0	750	13.236483504977	59
0	756	13.364822445383	60
0	768	13.426278515814	61
0	770	13.46751917222	62
0	790	13.76517013737	63
0	813	14.032228174295	64
0	819	14.154044658932	65
0	828	14.202854357079	66
0	839	14.370921298201	67
0	848	14.399976903659	68
0	850	14.403770617499	69
0	857	14.482124779634	70
0	873	14.674400967447	71
0	875	14.706828265336	72
0	893	14.896227600771	73
0	896	14.946515987186	74
0	911	15.13842558266	75
0	923	15.236136992522	76
0	961	15.811719996778	77
0	987	16.277502671621	78
0	1002	16.506530462561	79
0	1014	16.626079677925	80
0	1019	16.715183376935	81
0	1036	16.905082293634	82
0	1048	17.019988774982	83
0	1074	17.485258987321	84
0	1089	17.724480547212	85
0	1092	17.745392792367	86
0	1094	17.75781585046	87
0	1137	18.457858587351	88
0	1152	18.677641080861	89
0	1167	18.889407907159	90
0	1181	19.111527396296	91
0	1184	19.1490126095	92
0	1192	19.196253950717	93
0	1197	19.284934756441	94
0	1203	19.312540494127	95
0	1226	19.590349032085	96
0	1230	19.666141424942	97
0	1244	19.853353736896	98
0	1249	19.943774148941	99
0	1261	20.022396660402	100
0	1275	20.191282219108	101
0	1277	20.199118850391	102
0	1282	20.314583712552	103
0	1297	20.515757913585	104
0	1357	21.40665728282	105
0	1390	22.045246611231	106
0	1393	22.066773632862	107
0	1408	22.278338915532	108
0	1411	22.325199219287	109
0	1430	22.526803068371	110
0	1433	22.561985777456	111
0	1490	23.634005847505	112
0	1505	23.845754390524	113
0	1518	24.020137561249	114
0	1523	24.078553667902	115
0	1528	24.185566603319	116
0	1540	24.311154919517	117
0	1556	24.439911119838	118
0	1559	24.495966521534	119
0	1576	24.691339336348	120
0	1579	24.725964827577	121
0	1592	24.808465073561	122
0	1594	24.831856155519	123
0	1609	25.056489815826	124
0	1623	25.270104255256	125
0	1628	25.346415423931	126
0	1631	25.376157877781	127
0	1655	25.677484944436	128
0	1660	25.721261063737	129
0	1699	26.318699042107	130
0	1711	26.410701833655	131
0	1725	26.627955709831	132
0	1742	26.972022041374	133
0	1745	26.97475495706	134
0	1757	26.995183933365	135
0	1771	27.190204320196	136
0	1788	27.554168104053	137
0	1803	27.778130977204	138
0	1815	27.798337932266	139
0	1856	28.513055606735	140
0	1894	29.262861898652	141
0	1916	29.68392615881	142
0	1929	29.810393478089	143
0	1937	29.952910196756	144
0	1974	30.705295653657	145
0	1977	30.716761038942	146
0	1988	30.902456738322	147
0	2004	31.02244611565	148
0	2021	31.29129517008	149
0	2024	31.295333195709	150
0	2026	31.303328455521	151
0	2037	31.419904133294	152
0	2039	31.486386181487	153
0	2085	32.264700206056	154
0	2088	32.290311559118	155
0	2093	32.379395451502	156
0	2101	32.449630669378	157
0	2111	32.580759926251	158
0	2119	32.606037653536	159
0	2135	32.839412358846	160
0	2141	32.915952548618	161
0	2166	33.340799988018	162
0	2178	33.447776863169	163
0	2202	33.948559219786	164
0	2205	33.961818700082	165
0	2213	34.010697789698	166
0	2228	34.246535695111	167
0	2245	34.413104398324	168
0	2253	34.580323904718	169
0	2276	34.980972009219	170
0	2285	35.042654977239	171
0	2294	35.184904564682	172
0	2308	35.333056354771	173
0	2338	35.830172826166	174
0	2341	35.84990288785	175
0	2365	36.357963789442	176
0	2377	36.529542917657	177
0	2380	36.546897014125	178
0	2413	37.07674819986	179
0	2416	37.141816282966	180
0	2427	37.218528325786	181
0	2429	37.220408475919	182
0	2445	37.440577657937	183
0	2471	37.810043188137	184
0	2474	37.838309330849	185
0	2489	38.046665461685	186
0	2506	38.298652223707	187
0	2527	38.666908718004	188
0	2530	38.735239551409	189
0	2541	38.796743096161	190
0	2543	38.837213183874	191
0	2549	38.938653208525	192
0	2565	39.115279016917	193
0	2580	39.276238496877	194
0	2582	39.280300988636	195
0	2587	39.316351439033	196
0	2611	39.669499653516	197
0	2616	39.761845832725	198
0	2619	39.762787140823	199
0	2631	39.794455442069	200
0	2645	40.020982270463	201
0	2659	40.189598876893	202
0	2661	40.252543209064	203
0	2678	40.495844939751	204
0	2693	40.761596514501	205
0	2705	40.829665862148	206
0	2743	41.484694497691	207
0	2757	41.598275328387	208
0	2759	41.655479522889	209
0	2776	41.937684404748	210
0	2791	42.109362998314	211
0	2803	42.210231759632	212
0	2817	42.389549933789	213
0	2843	42.842296648961	214
0	2857	43.012140811274	215
0	2871	43.215872557278	216
0	2873	43.266356555856	217
0	2902	43.710657935551	218
0	2941	44.321114266928	219
0	2956	44.549035859635	220
0	2968	44.667560665125	221
0	2973	44.786836543991	222
0	3000	45.161528519962	223
0	3038	45.930129836611	224
0	3052	46.17057755006	225
0	3061	46.195282879532	226
0	3063	46.265886906187	227
0	3082	46.5572506179	228
0	3105	46.893435058809	229
0	3117	46.999579558132	230
0	3125	47.100583307683	231
0	3141	47.325639711052	232
0	3162	47.751539590266	233
0	3171	47.80902168548	234
0	3180	47.983128850745	235
0	3191	48.058276619226	236
0	3216	48.485242709223	237
0	3245	49.158116799833	238
0	3266	49.393993386562	239
0	3272	49.571565668649	240
0	3295	49.829947522409	241
0	3310	50.045514499236	242
0	3316	50.184674391416	243
0	3330	50.337047945675	244
0	3360	50.962141617207	245
0	3369	51.014553065542	246
0	3385	51.221112467671	247
0	3393	51.321574627323	248
0	3407	51.43185382535	249
0	3422	51.624744538449	250
0	3437	51.81122511453	251
0	3445	51.940046056195	252
0	3448	51.943922012465	253
0	3461	52.070947555591	254
0	3467	52.142732998765	255
0	3490	52.394541702218	256
0	3507	52.610405741949	257
0	3510	52.678338688465	258
0	3515	52.746858613405	259
0	3527	52.843585750723	260
0	3543	53.036060761877	261
0	3560	53.312656603184	262
0	3572	53.424648817199	263
0	3596	53.846138338189	264
0	3599	53.875253133879	265
0	3601	53.896962553578	266
0	3606	53.967807380027	267
0	3608	53.987191930942	268
0	3624	54.15596962546	269
0	3632	54.243375228215	270
0	3649	54.422121043876	271
0	3656	54.582631441028	272
0	3671	54.753447388157	273
0	3674	54.760288071829	274
0	3689	54.972089948905	275
0	3737	55.666597044761	276
0	3751	55.877766966493	277
0	3756	55.955192984923	278
0	3768	56.068115085147	279
0	3773	56.118131384143	280
0	3800	56.571858182681	281
0	3812	56.602316907732	282
0	3817	56.693951484524	283
0	3820	56.714415607495	284
0	3832	56.828907917781	285
0	3882	57.656469869883	286
0	3908	58.101452801328	287
0	3911	58.161765983973	288
0	3935	58.489945499558	289
0	3947	58.643960871467	290
0	3964	58.887364770534	291
0	3977	59.006179470199	292
0	3980	59.027301998925	293
0	3982	59.048278366045	294
0	4013	59.552134792062	295
0	4025	59.639003923251	296
0	4042	59.889525428233	297
0	4054	60.016217951778	298
0	4108	61.369296055765	299
0	4129	61.73724261278	300
0	4132	61.769616630122	301
0	4163	62.239652088072	302
0	4185	62.644833851493	303
0	4188	62.65249043407	304
0	4190	62.687955549099	305
0	4201	62.829939134544	306
0	4217	63.021132419328	307
0	4223	63.057640139705	308
0	4225	63.084076881628	309
0	4245	63.38604157275	310
0	4268	63.762827350067	311
0	4289	64.163224649172	312
0	4310	64.492568469437	313
0	4322	64.598569045064	314
0	4330	64.76694523741	315
0	4339	64.797103439449	316
0	4346	64.901677445467	317
0	4348	64.908434802577	318
0	4350	64.92276987944	319
0	4396	65.732739247201	320
0	4410	65.971826960457	321
0	4419	66.065281473739	322
0	4428	66.186141288109	323
0	4442	66.295112713738	324
0	4458	66.5511795545	325
0	4461	66.561562064937	326
0	4485	66.964116612178	327
0	4494	67.055098981136	328
0	4533	67.797091099517	329
0	4536	67.800444652715	330
0	4553	68.187760100213	331
0	4562	68.240225962046	332
0	4564	68.24258260843	333
0	4583	68.532141424828	334
0	4594	68.621391988932	335
0	4626	69.198314339352	336
0	4641	69.460174012157	337
0	4656	69.737432282561	338
0	4659	69.775091277605	339
0	4670	69.858013786137	340
0	4682	70.005240006134	341
0	4692	70.139732109501	342
0	4695	70.150906120079	343
0	4703	70.233701904614	344
0	4710	70.278329746234	345
0	4712	70.317895647726	346
0	4714	70.32163474181	347
0	4720	70.359138532051	348
0	4746	70.674821076472	349
0	4758	70.799340545268	350
0	4764	70.850041686297	351
0	4793	71.265247898386	352
0	4796	71.349979318657	353
0	4827	71.926888176338	354
0	4855	72.453331948848	355
0	4868	72.640759692393	356
0	4885	72.884519053062	357
0	4898	73.066111858527	358
0	4901	73.072583219456	359
0	4920	73.378749464709	360
0	4929	73.414740933019	361
0	4934	73.553380886927	362
0	4950	73.747677318546	363
0	4953	73.758013899705	364
0	4966	73.930198627041	365
0	4984	74.170392808349	366
0	4993	74.224726422417	367
0	5039	75.200553000016	368
0	5061	75.744822651199	369
0	5070	75.807016212193	370
0	5086	75.997382153701	371
0	5103	76.224701452752	372
0	5109	76.378117383666	373
0	5132	76.777551777164	374
0	5144	76.955827492546	375
0	5167	77.233762905301	376
0	5182	77.495719979573	377
0	5210	78.163306846344	378
0	5215	78.238084145525	379
0	5230	78.399680156205	380
0	5238	78.501253180742	381
0	5241	78.549003755312	382
0	5248	78.596108669996	383
0	5255	78.646428392619	384
0	5257	78.687634802316	385
0	5263	78.737006656076	386
0	5292	79.314821774456	387
0	5301	79.483417529539	388
0	5314	79.752487016186	389
0	5323	79.872822813491	390
0	5331	80.007671727418	391
0	5343	80.710567463525	392
0	5346	80.762170016313	393
0	5351	80.990397596885	394
0	5354	81.04909912727	395
0	5357	81.066929985269	396
0	5360	81.078886177852	397
0	5363	81.090500650275	398
0	5366	81.204480163336	399
0	5369	81.338302908074	400
0	5372	81.413036866953	401
0	5375	81.838770885859	402
0	5378	82.07714250659	403
0	5381	82.826481429355	404
0	5384	82.921364687422	405
0	5387	83.113652601736	406
0	5390	83.153246148803	407
0	5393	83.309641292978	408
0	5396	83.314638963641	409
0	5399	83.700310991017	410
0	5402	83.714234525232	411
0	5405	83.986620870093	412
0	5408	84.214128571201	413
0	5411	84.344374717585	414
0	5414	84.465290961252	415
0	5417	84.691362070434	416
0	5420	84.845186030653	417
0	5423	85.031998097174	418
0	5426	85.485966100331	419
0	5429	85.736806754349	420
0	5432	86.664737259624	421
0	5435	86.791523263503	422
0	5438	86.840421467912	423
0	5441	86.962188050659	424
0	5444	87.179768937382	425
0	5447	87.653552571549	426
0	5450	87.714673551912	427
0	5453	87.74419275849	428
0	5456	87.748366202212	429
0	5459	87.800436484521	430
0	5462	88.084513175638	431
0	5465	88.511225833133	432
0	5468	88.588363371942	433
0	5471	89.057932124228	434
0	5474	89.154659801726	435
0	5477	89.362229816824	436
0	5480	89.539730202521	437
0	5483	89.618244808159	438
0	5486	89.973873475526	439
0	5489	90.12054701016	440
0	5492	90.318847868739	441
0	5495	90.318858939118	442
0	5498	90.731023187294	443
0	5501	90.805775846057	444
0	5504	90.869690777032	445
0	5507	90.980524942842	446
0	5510	91.30046883121	447
0	5513	91.733621567385	448
0	5516	91.774691121132	449
0	5519	92.002502651267	450
0	5522	92.613139585186	451
0	5525	92.734948507728	452
0	5528	92.967571164413	453
0	5531	93.099671780363	454
0	5534	93.148215479097	455
0	5537	93.459148066659	456
0	5540	94.048044122144	457
0	5543	94.100172148019	458
0	5546	94.362673746612	459
0	5549	94.7872230774	460
0	5552	94.845813369097	461
0	5555	94.921099239401	462
0	5558	94.969083943288	463
0	5561	95.600503051571	464
0	5564	95.746548584619	465
0	5567	95.874186305738	466
0	5570	95.879385854777	467
0	5573	96.128056010367	468
0	5576	96.174561014044	469
0	5579	96.207935942291	470
0	5582	96.318503616421	471
0	5585	96.580698090053	472
0	5588	96.674433385248	473
0	5591	96.882274512564	474
0	5594	97.006840374517	475
0	5597	97.055224303471	476
0	5600	97.120267507066	477
0	5603	97.161539105787	478
0	5606	97.338296236994	479
0	5609	97.667911471626	480
0	5612	98.066719311881	481
0	5615	98.341655302641	482
0	5618	98.366661820626	483
0	5621	98.591353920536	484
0	5624	98.737058689083	485
0	5627	98.80189851178	486
0	5630	98.830226918739	487
0	5633	98.868679206907	488
0	5636	99.121041741604	489
0	5639	99.36484161064	490
0	5642	99.46569759729	491
0	5645	99.590104981106	492
0	5648	99.756780629235	493
0	5651	100.123833309823	494
0	5654	100.164325062563	495
0	5657	100.210173927604	496
0	5660	100.241469081681	497
0	5663	100.277523941597	498
0	5666	100.411432059769	499
0	5669	100.438100184424	500
0	5672	100.525991262523	501
0	5675	100.782076133319	502
0	5678	101.346203323002	503
0	5681	101.352388581314	504
0	5684	101.6422995366	505
0	5687	101.917168139484	506
0	5690	102.193360758617	507
0	5693	102.21279429429	508
0	5696	102.680892686421	509
0	5699	102.729932304949	510
0	5702	102.747354021601	511
0	5705	103.024017314831	512
0	5708	103.184695667364	513
0	5711	103.447820919023	514
0	5714	103.623463934767	515
0	5717	103.632801483496	516
0	5720	104.286500763661	517
0	5723	104.333431933512	518
0	5726	104.402535850254	519
0	5729	104.470166793223	520
0	5732	104.525272380631	521
0	5735	104.751456076469	522
0	5738	104.77259351129	523
0	5741	104.785616084247	524
0	5744	104.788929303131	525
0	5747	104.951157507577	526
0	5750	105.481669210681	527
0	5753	105.483525815557	528
0	5756	105.7052077664	529
0	5759	106.063205687296	530
0	5762	106.370771430191	531
0	5765	107.201965649304	532
0	5768	107.268147625539	533
0	5771	107.511285720211	534
0	5774	107.687861829202	535
0	5777	107.727950268219	536
0	5780	107.741168670358	537
0	5783	107.88481796638	538
0	5786	108.01777951629	539
0	5789	108.191492662583	540
0	5792	108.950297419201	541
0	5795	109.260099755032	542
0	5798	109.678411069557	543
0	5801	109.864933440611	544
0	5804	109.947479413956	545
0	5807	109.996762578399	546
0	5810	110.648546773836	547
0	5813	110.77000263156	548
0	5816	110.822718054127	549
0	5819	111.244895809004	550
0	5822	111.841335944099	551
0	5825	111.97689634451	552
0	5828	112.544224383185	553
0	5831	112.795671782299	554
0	5834	113.116763534913	555
0	5837	113.24993203224	556
0	5840	113.449024760913	557
0	5843	113.695600853519	558
0	5846	114.110353146139	559
0	5849	114.248240053709	560
0	5852	114.317590714467	561
0	5855	114.689877043063	562
0	5858	115.067897382682	563
0	5861	115.111116626001	564
0	5864	115.303519011319	565
0	5867	115.600367507849	566
0	5870	115.603032556815	567
0	5873	116.334964022968	568
0	5876	116.420271185375	569
0	5879	116.816820966296	570
0	5882	116.848887785193	571
0	5885	117.152101571158	572
0	5888	117.953691502133	573
0	5891	118.794063387383	574
0	5894	118.924222855855	575
0	5897	119.204357995247	576
0	5900	119.341946690939	577
0	5903	119.342757955203	578
0	5906	119.546795372794	579
0	5909	119.609594952407	580
0	5912	119.701553215962	581
0	5915	119.807246661622	582
0	5918	119.836691669085	583
0	5921	119.948493203083	584
0	5924	120.293819879031	585
0	5927	120.364539194084	586
0	5930	120.406645851725	587
0	5933	120.509188780251	588
0	5936	120.65239784385	589
0	5939	120.678113891305	590
0	5942	120.728916166975	591
0	5945	121.518442820487	592
0	5948	121.539036493231	593
0	5951	121.643252257448	594
0	5954	122.03963032567	595
0	5957	122.208057586237	596
0	5960	122.929845787234	597
0	5963	123.014044446844	598
0	5966	123.662037040224	599
0	5969	123.973095912295	600
0	5972	124.447173428418	601
0	5975	124.553165744272	602
0	5978	124.85065169514	603
0	5981	124.939681563021	604
0	5984	125.020718139489	605
0	5987	125.122716306259	606
0	5990	125.139632204611	607
0	5993	125.211490985636	608
0	5996	125.316084516367	609
0	5999	125.614610949205	610
0	6002	125.667465042032	611
0	6005	126.188779402496	612
0	6008	126.217204504775	613
0	6011	126.295904987	614
0	6014	126.30688646151	615
0	6017	126.917858417311	616
0	6020	127.17648798907	617
0	6023	127.179297307318	618
0	6026	127.18159595736	619
0	6029	127.334080694203	620
0	6032	127.628521525802	621
0	6035	127.701169969582	622
0	6038	127.732956605513	623
0	6041	128.161833698416	624
0	6044	128.178406153	625
0	6047	128.23610869507	626
0	6050	128.254883604527	627
0	6053	128.481159358048	628
0	6056	128.704136842429	629
0	6059	129.036729998564	630
0	6062	129.093034803058	631
0	6065	129.206213711385	632
0	6068	129.315345254338	633
0	6071	129.594319072591	634
0	6074	129.75732273877	635
0	6077	130.111246703412	636
0	6080	130.50525821653	637
0	6083	130.60055393305	638
0	6086	130.860243060171	639
0	6089	130.880549876959	640
0	6092	130.943581882702	641
0	6095	131.002762257352	642
0	6098	131.030955834235	643
0	6101	131.210221675239	644
0	6104	131.221614981732	645
0	6107	131.351049922541	646
0	6110	131.422842186216	647
0	6113	131.556702760613	648
0	6116	131.617497072459	649
0	6119	131.740184890377	650
0	6122	131.861997781442	651
0	6125	132.010714419797	652
0	6128	132.240662697347	653
0	6131	132.357347451554	654
0	6134	132.595246701821	655
0	6137	132.97821515335	656
0	6140	133.044895821025	657
0	6143	133.158529917773	658
0	6146	133.254113515275	659
0	6149	133.60485644428	660
0	6152	133.644827551864	661
0	6155	133.787229164989	662
0	6158	134.097978265395	663
0	6161	134.116045714211	664
0	6164	134.127751294	665
0	6167	134.3435366757	666
0	6170	134.582339349819	667
0	6173	134.62862354421	668
0	6176	134.930266590535	669
0	6179	135.306090277377	670
0	6182	135.606572836119	671
0	6185	135.835310960236	672
0	6188	135.895375976293	673
0	6191	135.934668353472	674
0	6194	136.028289644119	675
0	6197	136.042773466142	676
0	6200	136.219925595348	677
0	6203	136.221872677216	678
0	6206	136.285589446792	679
0	6209	136.73080624468	680
0	6212	136.823484250188	681
0	6215	136.852134854464	682
0	6218	136.896028486643	683
0	6221	137.198120806888	684
0	6224	137.321304663645	685
0	6227	137.839794385402	686
0	6230	137.848921995301	687
0	6233	138.100100692169	688
0	6236	138.421784261986	689
0	6239	138.556774456717	690
0	6242	138.572790227906	691
0	6245	138.699576653204	692
0	6248	138.845885721031	693
0	6251	139.274505661117	694
0	6254	139.347795919484	695
0	6257	139.481842294799	696
0	6260	139.654175793158	697
0	6263	139.761256663377	698
0	6266	140.402218429299	699
0	6269	140.440477638479	700
0	6272	140.6479266573	701
0	6275	140.776908355533	702
0	6278	140.784108921483	703
0	6281	141.090278605272	704
0	6284	141.202843645635	705
0	6287	141.365423317872	706
0	6290	141.508100174432	707
0	6293	141.542939206507	708
0	6296	141.69658987488	709
0	6299	141.727646991981	710
0	6302	141.956406067805	711
0	6305	142.166063888796	712
0	6308	142.231098062894	713
0	6311	142.386066538795	714
0	6314	142.413657185181	715
0	6317	142.49246869957	716
0	6320	142.592207166144	717
0	6323	142.624009569504	718
0	6326	143.250575467413	719
0	6329	143.28541521073	720
0	6332	143.32685224718	721
0	6335	143.354569611465	722
0	6338	143.823217597484	723
0	6341	143.99620521937	724
0	6344	144.153172623288	725
0	6347	144.17253211775	726
0	6350	144.29462868675	727
0	6353	144.777431972852	728
0	6356	145.204916310935	729
0	6359	145.222239709824	730
0	6362	145.344960551772	731
0	6365	145.667226951596	732
0	6368	145.924819346611	733
0	6371	146.344146601316	734
0	6374	146.445987098689	735
0	6377	146.465611003215	736
0	6380	146.934384931375	737
0	6383	147.045516714007	738
0	6386	147.279769452996	739
0	6389	147.407964162049	740
0	6392	147.648506918815	741
0	6395	147.822100915219	742
0	6398	147.901517105223	743
0	6401	148.153445339348	744
0	6404	148.436202005256	745
0	6407	148.441690425342	746
0	6410	148.643844257962	747
0	6413	148.906748677579	748
0	6416	148.96164138198	749
0	6419	149.252953424295	750
0	6422	149.287952433939	751
0	6425	149.289915321219	752
0	6428	149.608226545778	753
0	6431	149.6819431337	754
0	6434	150.321594129054	755
0	6437	150.374612749335	756
0	6440	150.497161838308	757
0	6443	150.637166965531	758
0	6446	150.815967246067	759
0	6449	151.430582290624	760
0	6452	151.820577672993	761
0	6455	151.983781385786	762
0	6458	152.105992898043	763
0	6461	152.126503276644	764
0	6464	152.733291791124	765
0	6467	152.927693969336	766
0	6470	153.099180989859	767
0	6473	153.496768880828	768
0	6476	153.840582743186	769
0	6479	153.874890468661	770
0	6482	154.353926426539	771
0	6485	155.330626224608	772
0	6488	155.66867321556	773
0	6491	155.686439692091	774
0	6494	155.721171004733	775
0	6497	155.74101531003	776
0	6500	155.939271211182	777
0	6503	156.140081445958	778
0	6506	156.241725336769	779
0	6509	156.838081268234	780
0	6512	156.851034406792	781
0	6515	157.403155297929	782
0	6518	157.513496020447	783
0	6521	157.632112339912	784
0	6524	157.691978016396	785
0	6527	157.952145501888	786
0	6530	158.330291332774	787
0	6533	158.601435035544	788
0	6536	158.608209406592	789
0	6539	158.681550437351	790
0	6542	159.320302811887	791
0	6545	159.345817526646	792
0	6548	159.433632923764	793
0	6551	159.5509866851	794
0	6554	159.639217647246	795
0	6557	159.738659504515	796
0	6560	159.741952161312	797
0	6563	159.893745116162	798
0	6566	159.934715569591	799
0	6569	160.308043663627	800
0	6572	160.410629061993	801
0	6575	160.564321577471	802
0	6578	161.094159229917	803
0	6581	161.322215005301	804
0	6584	161.343201554767	805
0	6587	161.53110195194	806
0	6590	162.112285872671	807
0	6593	162.133020039999	808
0	6596	162.540278877453	809
0	6599	162.559587133259	810
0	6602	162.680673889587	811
0	6605	162.69219247295	812
0	6608	162.771305593029	813
0	6611	162.789407087059	814
0	6614	162.842394074586	815
0	6617	162.896538952733	816
0	6620	163.087163460386	817
0	6623	163.453071891558	818
0	6626	163.459798675742	819
0	6629	163.60758267973	820
0	6632	163.610728504485	821
0	6635	163.754657484023	822
0	6638	163.866659158689	823
0	6641	164.076527591874	824
0	6644	164.090627981546	825
0	6647	164.247939799924	826
0	6650	164.305994482949	827
0	6653	164.31259527996	828
0	6656	164.36258544329	829
0	6659	164.536157817268	830
0	6662	164.594547031614	831
0	6665	164.889431476571	832
0	6668	164.917526619962	833
0	6671	165.011920237516	834
0	6674	165.014342086528	835
0	6677	165.149413260562	836
0	6680	165.173956262025	837
0	6683	165.973468957369	838
0	6686	166.166187496627	839
0	6689	166.222302681862	840
0	6692	166.954215105554	841
0	6695	167.047999371009	842
0	6698	167.976055370199	843
0	6701	167.985402350546	844
0	6704	168.090608509698	845
0	6707	168.164840853858	846
0	6710	168.200416205429	847
0	6713	168.556603140407	848
0	6716	168.760246656168	849
0	6719	169.089283341583	850
0	6722	169.224072030427	851
0	6725	169.428415699909	852
0	6728	170.337980470281	853
0	6731	170.429786055778	854
0	6734	170.443292887153	855
0	6737	170.518305275777	856
0	6740	170.824093049919	857
0	6743	171.147825263203	858
0	6746	171.215872707126	859
0	6749	171.230483038557	860
0	6752	171.285744077143	861
0	6755	171.515876595729	862
0	6758	171.73311725796	863
0	6761	171.828959796857	864
0	6764	171.885449139249	865
0	6767	172.086435801061	866
0	6770	172.305674313263	867
0	6795	172.828802499747	868
0	6809	172.974478014354	869
0	6829	173.359225728488	870
0	6845	173.469586152816	871
0	6857	173.607288930425	872
0	6873	173.769084869452	873
0	6879	173.880750227305	874
0	6881	173.948419451045	875
0	6911	174.294243378582	876
0	6927	174.539469821029	877
0	6954	174.807525013425	878
0	6959	174.914704772493	879
0	6971	175.03323625608	880
0	6976	175.122664236599	881
0	7024	175.816793252706	882
0	7050	176.169610731144	883
0	7052	176.259858490842	884
0	7090	176.777823719941	885
0	7095	176.879168362721	886
0	7098	176.888588216932	887
0	7113	177.156992165169	888
0	7125	177.209948619837	889
0	7130	177.329182998116	890
0	7142	177.414884518952	891
0	7180	177.96871341552	892
0	7197	178.306157073272	893
0	7200	178.365631778854	894
0	7260	179.21223493812	895
0	7265	179.308410582981	896
0	7313	180.002981724162	897
0	7327	180.241879712864	898
0	7356	180.712546666479	899
0	7383	181.167288099817	900
0	7395	181.237641576903	901
0	7397	181.26344927754	902
0	7459	182.229393327134	903
0	7464	182.284687870443	904
0	7467	182.34206968952	905
0	7479	182.393892140696	906
0	7481	182.416281048925	907
0	7486	182.550757629333	908
0	7525	183.15375128377	909
0	7561	183.59799412041	910
0	7563	183.651157430214	911
0	7568	183.739824309414	912
0	7592	183.973911455417	913
0	7597	184.071215283369	914
0	7600	184.083240957195	915
0	7636	184.580367174064	916
0	7650	184.842759790281	917
0	7652	184.866926069534	918
0	7681	185.293866548442	919
0	7696	185.493326333275	920
0	7699	185.556937242313	921
0	7711	185.585437831443	922
0	7716	185.680740995638	923
0	7728	185.774500133966	924
0	7733	185.868275765092	925
0	7736	185.946708023017	926
0	7760	186.222999838987	927
0	7774	186.45095892032	928
0	7779	186.505270078656	929
0	7803	186.822741524594	930
0	7805	186.860454469444	931
0	7819	187.000663571309	932
0	7824	187.119973554684	933
0	7836	187.190237810992	934
0	7838	187.262853579029	935
0	7867	187.6970987553	936
0	7891	188.062604008863	937
0	7896	188.149336979938	938
0	7908	188.203630973224	939
0	7925	188.471811318142	940
0	7937	188.611398827908	941
0	7951	188.773497457344	942
0	7980	189.344982526907	943
0	7992	189.389991025679	944
0	8006	189.591014155393	945
0	8011	189.750058595655	946
0	8038	190.153975496299	947
0	8053	190.300620564035	948
0	8089	190.864002910028	949
0	8094	190.949785277182	950
0	8118	191.227656978572	951
0	8120	191.232642597718	952
0	8137	191.47315406666	953
0	8140	191.505382582425	954
0	8188	192.193571391942	955
0	8190	192.221850014489	956
0	8252	193.258875899096	957
0	8269	193.505019669302	958
0	8281	193.625250598579	959
0	8298	193.87218657379	960
0	8301	193.886887849274	961
0	8316	194.076108197525	962
0	8319	194.145394863024	963
0	8343	194.368286509367	964
0	8345	194.401345111831	965
0	8350	194.520011225483	966
0	8362	194.628091765003	967
0	8376	194.866288055682	968
0	8381	194.894437086768	969
0	8393	194.989505020696	970
0	8407	195.174832740755	971
0	8409	195.195911966737	972
0	8414	195.292427009769	973
0	8453	195.937490226512	974
0	8489	196.388985584663	975
0	8491	196.404023946496	976
0	8532	197.091148624992	977
0	8535	197.095046483582	978
0	8547	197.253368302503	979
0	8597	198.031550320585	980
0	8602	198.095818381159	981
0	8605	198.127964389272	982
0	8620	198.307374992093	983
0	8623	198.367245592681	984
0	8659	198.82138761416	985
0	8664	198.869936701632	986
0	8676	198.974358962514	987
0	8681	199.14781736628	988
0	8696	199.308444720664	989
1	2	0.159174900913	1
1	8	0.33888697861	1
1	30	0.590073130219	1
1	46	0.961993972634	1
1	54	1.146638598928	1
1	76	1.536947666105	1
1	84	1.694387894101	1
1	106	2.070180704942	1
1	114	2.180390402276	1
1	127	2.375791687555	1
1	143	2.583423547688	1
1	152	2.680449180432	1
1	161	2.795553019809	1
1	164	2.866184847637	1
1	197	3.310889732044	1
1	200	3.322566665863	1
1	231	3.985549121849	1
1	234	4.049220350017	1
1	241	4.145940771007	1
1	252	4.275830040657	1
1	278	4.589609264182	1
1	293	4.924051504247	1
1	305	5.07458632691	1
1	320	5.205362840354	1
1	328	5.373249410934	1
1	339	5.473023812737	1
1	371	5.992674629907	1
1	387	6.354348482762	1
1	390	6.369085553855	1
1	394	6.451401153104	2
1	399	6.469633358329	2
1	413	6.678555859991	1
1	415	6.682640977671	2
1	424	6.774490605122	2
1	441	7.13198813781	1
1	463	7.762022123545	1
1	474	8.063178975272	1
1	477	8.093425146005	1
1	494	8.501487997593	1
1	502	8.909666440775	2
1	505	9.678710814603	3
1	508	9.807052649139	4
1	511	10.128100560551	5
1	548	10.45090097553	3
1	554	10.574686867455	3
1	570	10.721679751693	2
1	597	11.024986946491	1
1	614	11.252174734833	1
1	617	11.277349616721	1
1	632	11.532395157166	1
1	648	11.736681532036	1
1	660	11.911145771044	1
1	665	11.942091707144	1
1	676	12.096258638837	1
1	708	12.675142734434	1
1	723	12.959415670453	1
1	735	13.106981128804	1
1	738	13.129370360931	1
1	751	13.236483504977	1
1	757	13.364822445383	1
1	769	13.426278515814	1
1	771	13.46751917222	2
1	791	13.76517013737	1
1	814	14.032228174295	1
1	820	14.154044658932	1
1	829	14.202854357079	1
1	840	14.370921298201	1
1	849	14.399976903659	1
1	851	14.403770617499	2
1	858	14.482124779634	2
1	874	14.674400967447	1
1	876	14.706828265336	2
1	894	14.896227600771	2
1	897	14.946515987186	3
1	912	15.13842558266	3
1	924	15.236136992522	3
1	962	15.811719996778	1
1	988	16.277502671621	1
1	1003	16.506530462561	1
1	1015	16.626079677925	1
1	1020	16.715183376935	1
1	1037	16.905082293634	1
1	1049	17.019988774982	1
1	1075	17.485258987321	1
1	1090	17.724480547212	1
1	1093	17.745392792367	1