version 3
run General-0-20230514-13:03:31-2218
attr configname General
attr datetime 20230514-13:03:31
attr datetimef 20230514-130331
attr experiment General
attr inifile omnetpp.ini
attr iterationvars ""
attr iterationvarsd ""
attr iterationvarsf ""
attr measurement ""
attr network Network
attr processid 2218
attr repetition 0
attr replication #0
attr resultdir results
attr runnumber 0
attr seedset 0
config network Network
config sim-time-limit 200s
config Network.nodeTx.gen.generationInterval exponential(0.001)
config Network.queue.serviceTime exponential(0.001)
config Network.nodeTx.gen.packetByteSize 12500
config Network.queue1.bufferSize 200
config Network.queue2.bufferSize 200
config Network.queue2.serviceTime exponential(1)
config Network.queue1.serviceTime exponential(1)
config Network.nodeRx.queue.bufferSize 200
config Network.nodeTx.queue.bufferSize 2000000

vector 0 Network.nodeTx.gen "Packets sent vector" ETV
vector 1 Network.queue2 "" ETV
vector 2 Network.nodeTx.queue "" ETV
vector 3 Network.queue1 "" ETV
0	0	0	1
0	6	0.000795874505	2
0	9	0.001694434893	3
0	11	0.002950365651	4
0	13	0.004809969863	5
0	15	0.005733192994	6
0	17	0.00768473833	7
0	19	0.00847193947	8
0	21	0.010350903524	9
0	23	0.010901952011	10
0	25	0.011878958437	11
0	27	0.012917117738	12
0	29	0.013402245902	13
0	31	0.013977765099	14
0	33	0.014330924238	15
0	35	0.01655444866	16
0	37	0.016612833329	17
0	39	0.019927745609	18
0	41	0.02024610175	19
0	43	0.020729703855	20
0	45	0.021379150203	21
0	47	0.022948046321	22
0	49	0.024620257521	23
0	51	0.025372931634	24
0	53	0.026026814201	25
0	55	0.026866247054	26
0	57	0.027365119063	27
0	59	0.029963373149	28
0	61	0.031771742413	29
0	63	0.031845427768	30
0	65	0.032257005764	31
0	67	0.03234816679	32
0	69	0.033392779298	33
0	71	0.033413204886	34
0	73	0.033872453023	35
0	75	0.035659940686	36
0	77	0.038810110615	37
0	79	0.040315894874	38
0	81	0.040467125728	39
0	83	0.042507439986	40
0	85	0.044548332202	41
0	87	0.048393554071	42
0	89	0.049035263244	43
0	91	0.050640502801	44
0	93	0.052254504876	45
0	95	0.052873434336	46
0	97	0.053608398757	47
0	99	0.055124934731	48
0	101	0.056260873673	49
0	103	0.056386748082	50
0	105	0.057661975784	51
0	107	0.058683407658	52
0	109	0.059555728853	53
0	111	0.059710458534	54
0	113	0.060481293192	55
0	115	0.06337571367	56
0	117	0.06479707835	57
0	119	0.065534905642	58
0	121	0.065646851803	59
0	123	0.066182417523	60
0	125	0.066824112225	61
0	127	0.067131392577	62
0	129	0.067337595859	63
0	131	0.068825850685	64
0	133	0.07016114087	65
0	135	0.070770223293	66
0	137	0.071014271784	67
0	139	0.07185460649	68
0	141	0.071999884517	69
0	143	0.072018853086	70
0	145	0.072410623897	71
0	147	0.073372004836	72
0	149	0.073534141325	73
0	151	0.074481138002	74
0	153	0.074732579934	75
0	155	0.075692127911	76
0	157	0.07618068496	77
0	159	0.079058599981	78
0	161	0.081387513355	79
0	163	0.08253265231	80
0	165	0.083130398387	81
0	167	0.083575916882	82
0	169	0.084525411465	83
0	171	0.085099943872	84
0	173	0.087426294934	85
0	175	0.088622402733	86
0	177	0.088726963959	87
0	179	0.088789079249	88
0	181	0.092289292933	89
0	183	0.093388205401	90
0	185	0.094447039532	91
0	187	0.095557636978	92
0	189	0.095745063044	93
0	191	0.09598126975	94
0	193	0.096424673779	95
0	195	0.096562702467	96
0	197	0.097951745157	97
0	199	0.098330707121	98
0	201	0.099266768681	99
0	203	0.099718870741	100
0	205	0.100111983298	101
0	210	0.100956411092	102
1	1	0.000001	1
2	7	0.000795874505	1
2	10	0.001694434893	1
2	12	0.002950365651	2
2	14	0.004809969863	3
2	16	0.005733192994	4
2	18	0.00768473833	5
2	20	0.00847193947	6
2	22	0.010350903524	7
2	24	0.010901952011	8
2	26	0.011878958437	9
2	28	0.012917117738	10
2	30	0.013402245902	11
2	32	0.013977765099	12
2	34	0.014330924238	13
2	36	0.01655444866	14
2	38	0.016612833329	15
2	40	0.019927745609	16
2	42	0.02024610175	17
2	44	0.020729703855	18
2	46	0.021379150203	19
2	48	0.022948046321	20
2	50	0.024620257521	21
2	52	0.025372931634	22
2	54	0.026026814201	23
2	56	0.026866247054	24
2	58	0.027365119063	25
2	60	0.029963373149	26
2	62	0.031771742413	27
2	64	0.031845427768	28
2	66	0.032257005764	29
2	68	0.03234816679	30
2	70	0.033392779298	31
2	72	0.033413204886	32
2	74	0.033872453023	33
2	76	0.035659940686	34
2	78	0.038810110615	35
2	80	0.040315894874	36
2	82	0.040467125728	37
2	84	0.042507439986	38
2	86	0.044548332202	39
2	88	0.048393554071	40
2	90	0.049035263244	41
2	92	0.050640502801	42
2	94	0.052254504876	43
2	96	0.052873434336	44
2	98	0.053608398757	45
2	100	0.055124934731	46
2	102	0.056260873673	47
2	104	0.056386748082	48
2	106	0.057661975784	49
2	108	0.058683407658	50
2	110	0.059555728853	51
2	112	0.059710458534	52
2	114	0.060481293192	53
2	116	0.06337571367	54
2	118	0.06479707835	55
2	120	0.065534905642	56
2	122	0.065646851803	57
2	124	0.066182417523	58
2	126	0.066824112225	59
2	128	0.067131392577	60
2	130	0.067337595859	61
2	132	0.068825850685	62
2	134	0.07016114087	63
2	136	0.070770223293	64
2	138	0.071014271784	65
2	140	0.07185460649	66
2	142	0.071999884517	67
2	144	0.072018853086	68
2	146	0.072410623897	69
2	148	0.073372004836	70
2	150	0.073534141325	71
2	152	0.074481138002	72
2	154	0.074732579934	73
2	156	0.075692127911	74
2	158	0.07618068496	75
2	160	0.079058599981	76
2	162	0.081387513355	77
2	164	0.08253265231	78
2	166	0.083130398387	79
2	168	0.083575916882	80
2	170	0.084525411465	81
2	172	0.085099943872	82
2	174	0.087426294934	83
2	176	0.088622402733	84
2	178	0.088726963959	85
2	180	0.088789079249	86
2	182	0.092289292933	87
2	184	0.093388205401	88
2	186	0.094447039532	89
2	188	0.095557636978	90
2	190	0.095745063044	91
2	192	0.09598126975	92
2	194	0.096424673779	93
2	196	0.096562702467	94
2	198	0.097951745157	95
2	200	0.098330707121	96
2	202	0.099266768681	97
2	204	0.099718870741	98
2	206	0.100111983298	99
2	211	0.100956411092	99
3	208	0.100895874505	1
vector 4 Network.nodeRx.queue "" ETV
vector 5 Network.nodeRx.sink "Packets received" ETV
vector 6 Network.nodeRx.sink Delay ETV
0	212	0.100995594248	103
0	214	0.101572918559	104
0	216	0.102578789564	105
0	218	0.10703328641	106
0	220	0.110226233052	107
0	222	0.11033386816	108
0	224	0.111391694573	109
0	226	0.111625996092	110
0	228	0.112634015337	111
0	230	0.112809928882	112
0	232	0.118170029232	113
0	234	0.119228771947	114
0	236	0.120100687801	115
0	238	0.120392768334	116
0	240	0.120927833011	117
0	242	0.121555774592	118
0	244	0.122199555594	119
0	246	0.122479832602	120
0	248	0.123456696676	121
0	250	0.123629824132	122
0	252	0.124042325362	123
0	254	0.124159280772	124
0	256	0.125282449074	125
0	258	0.126350521271	126
0	260	0.126732077114	127
0	262	0.126880789383	128
0	264	0.128387424716	129
0	266	0.128606305313	130
0	268	0.131593495205	131
0	270	0.132053509163	132
0	272	0.133139778544	133
0	274	0.134860110202	134
0	276	0.13487377478	135
0	278	0.134975919662	136
0	280	0.135951021596	137
0	282	0.137770840515	138
0	284	0.138890654881	139
0	286	0.138991689656	140
0	288	0.142565278028	141
0	290	0.146314309488	142
0	292	0.148419630789	143
0	294	0.149051967385	144
0	296	0.149764550978	145
0	298	0.153526478263	146
0	300	0.153583805189	147
0	302	0.154512283686	148
0	304	0.155112230573	149
0	306	0.156456475845	150
0	308	0.156476665973	151
0	310	0.156516642272	152
0	312	0.157099520661	153
0	314	0.157431930902	154
0	316	0.161323501025	155
0	318	0.16145155779	156
0	320	0.161896977252	157
0	322	0.162248153341	158
0	324	0.162903799625	159
0	326	0.163030188261	160
0	328	0.164197061788	161
0	330	0.164579762737	162
0	332	0.166703999934	163
0	334	0.16723888431	164
0	336	0.169742796093	165
0	338	0.169809093494	166
0	340	0.170053488942	167
0	342	0.171232678469	168
0	344	0.172065521985	169
0	346	0.172901619517	170
0	348	0.17490486004	171
0	350	0.17521327488	172
0	352	0.175924522817	173
0	354	0.176665281767	174
0	356	0.179150864124	175
0	358	0.179249514432	176
0	360	0.18178981894	177
0	362	0.182647714581	178
0	364	0.182734485063	179
0	366	0.185383740992	180
0	368	0.185709081408	181
0	370	0.186092641622	182
0	372	0.186102042373	183
0	374	0.187202888283	184
0	376	0.189050215934	185
0	378	0.189191546648	186
0	380	0.190233327302	187
0	382	0.191493261112	188
0	384	0.193334543583	189
0	386	0.19367619775	190
0	388	0.193983715474	191
0	390	0.194186065913	192
0	392	0.194693266036	193
0	394	0.195576395078	194
0	396	0.196381192478	195
0	398	0.196401504937	196
0	400	0.196581757189	197
0	402	0.198347498261	198
0	404	0.198809229157	199
0	406	0.198813935697	200
0	408	0.198972277203	201
0	410	0.200104911345	202
0	414	0.200947994377	203
0	416	0.201262716038	204
0	418	0.202479224691	205
0	420	0.203807982565	206
0	422	0.204148329303	207
0	424	0.207423472481	208
0	426	0.207991376634	209
0	428	0.208277397607	210
0	430	0.209688422016	211
0	432	0.210546814984	212
0	434	0.211051158791	213
0	436	0.211947749662	214
0	438	0.214211483238	215
0	440	0.21506070405	216
0	442	0.21607936278	217
0	444	0.216331782773	218
0	446	0.218553289671	219
0	448	0.221605571328	220
0	450	0.222745179292	221
0	452	0.223337803319	222
0	454	0.223934182713	223
0	456	0.225807642593	224
0	465	0.229650649176	225
0	467	0.230852887743	226
0	469	0.23097641439	227
0	471	0.231329434523	228
0	473	0.232786253082	229
0	475	0.234467175287	230
0	477	0.234997897784	231
0	479	0.235502916532	232
0	481	0.236628198549	233
0	483	0.238757697945	234
0	485	0.239045108421	235
0	487	0.239915644247	236
0	489	0.240291383089	237
0	491	0.242426213539	238
0	493	0.245790583992	239
0	495	0.246969966926	240
0	497	0.247857828336	241
0	499	0.249149737605	242
0	501	0.250227572489	243
0	503	0.25092337195	244
0	505	0.251685239721	245
0	507	0.254810708079	246
0	509	0.255072765321	247
0	511	0.256105562332	248
0	513	0.25660787313	249
0	515	0.25715926912	250
0	517	0.258123722685	251
0	519	0.259056125565	252
0	521	0.259700230273	253
0	523	0.259719610054	254
0	525	0.26035473777	255
0	527	0.260713664986	256
0	529	0.261972708503	257
0	531	0.263052028702	258
0	533	0.263391693435	259
0	535	0.26373429306	260
0	537	0.264217928747	261
0	539	0.265180303803	262
0	541	0.26656328301	263
0	543	0.26712324408	264
0	545	0.269230691685	265
0	547	0.269376265663	266
0	549	0.269484812761	267
0	551	0.269839036893	268
0	553	0.269935959648	269
0	555	0.270779848121	270
0	557	0.271216876135	271
0	559	0.272110605213	272
0	561	0.272913157199	273
0	563	0.273767236935	274
0	565	0.273801440353	275
0	567	0.274860449738	276
0	569	0.278332985217	277
0	571	0.279388834826	278
0	573	0.279775964918	279
0	575	0.280340575419	280
0	577	0.280590656914	281
0	579	0.282859290907	282
0	581	0.283011584532	283
0	583	0.283469757416	284
0	585	0.283572078031	285
0	587	0.284144539582	286
0	589	0.288282349343	287
0	591	0.290507264	288
0	593	0.290808829913	289
0	595	0.292449727491	290
0	597	0.293219804351	291
0	599	0.294436823846	292
0	601	0.295030897344	293
0	603	0.295136509988	294
0	605	0.295241391824	295
0	607	0.297760673954	296
0	609	0.29819501961	297
0	611	0.299447627135	298
0	613	0.300081089753	299
0	617	0.306846480273	300
0	619	0.308686213058	301
0	621	0.308848083145	302
0	623	0.311198260435	303
0	625	0.313224169252	304
0	627	0.313262452165	305
0	629	0.31343977774	306
0	631	0.314149695667	307
0	633	0.315105662091	308
0	635	0.315288200693	309
0	637	0.315420384403	310
0	639	0.316930207859	311
0	641	0.318814136746	312
0	643	0.320816123242	313
0	645	0.322462842343	314
0	647	0.322992845221	315
0	649	0.323834726183	316
0	651	0.323985517193	317
0	653	0.324508387223	318
0	655	0.324542174009	319
0	657	0.324613849393	320
0	659	0.328663696232	321
0	661	0.329859134798	322
0	663	0.330326407364	323
0	665	0.330930706436	324
0	667	0.331475563564	325
0	669	0.332755897768	326
0	671	0.33280781032	327
0	673	0.334820583056	328
0	675	0.335275494901	329
0	677	0.338985455493	330
0	679	0.339002223259	331
0	681	0.340938800496	332
0	683	0.341201129805	333
0	685	0.341212913037	334
0	687	0.342660707119	335
0	689	0.34310695994	336
0	691	0.345991571692	337
0	693	0.347300870056	338
0	695	0.348687161408	339
0	697	0.348875456383	340
0	699	0.349290068926	341
0	701	0.350026200026	342
0	703	0.350698660543	343
0	705	0.350754530596	344
0	709	0.351168509519	345
0	711	0.351391648727	346
0	713	0.351589478234	347
0	715	0.351608173704	348
0	717	0.351795692655	349
0	719	0.353374105377	350
0	721	0.353996702721	351
0	723	0.354250208426	352
0	725	0.356326239486	353
0	727	0.356749896587	354
0	729	0.359634440875	355
0	731	0.362266659738	356
0	733	0.363203798456	357
0	735	0.364422595259	358
0	737	0.365330559286	359
0	739	0.365362916091	360
0	741	0.366893747317	361
0	743	0.367073704659	362
0	745	0.367766904429	363
0	747	0.368738386587	364
0	749	0.368790069493	365
0	751	0.36965099313	366
0	753	0.370851964037	367
0	755	0.371123632107	368
0	757	0.376002764995	369
0	759	0.378724113251	370
0	761	0.379035081056	371
0	763	0.379986910764	372
0	765	0.381123507259	373
0	767	0.381890586914	374
0	769	0.383887758881	375
0	771	0.384779137458	376
0	773	0.386168814522	377
0	775	0.387478599893	378
0	777	0.390816534227	379
0	779	0.391190420723	380
0	781	0.391998400776	381
0	783	0.392506265899	382
0	785	0.392745018772	383
0	787	0.392980543345	384
0	789	0.393232141958	385
0	791	0.393438174006	386
0	793	0.393685033275	387
0	795	0.396574108867	388
0	797	0.397417087642	389
0	799	0.398762435075	390
0	801	0.399364114062	391
0	803	0.400038358632	392
0	807	0.403552837313	393
0	809	0.403810850077	394
0	811	0.40495198798	395
0	813	0.405245495632	396
0	815	0.405334649922	397
0	817	0.405394430885	398
0	819	0.405452503247	399
0	821	0.406022400812	400
0	823	0.406691514536	401
0	825	0.40706518433	402
0	827	0.409193854425	403
0	829	0.410385712529	404
0	831	0.414132407143	405
0	833	0.414606823433	406
0	835	0.415568263005	407
0	837	0.41576623074	408
0	839	0.416548206461	409
0	841	0.416573194814	410
0	843	0.418501554951	411
0	845	0.418571172622	412
0	847	0.419933104346	413
0	849	0.421070642852	414
0	851	0.421721873584	415
0	853	0.422326454802	416
0	855	0.423456810348	417
0	857	0.424225930149	418
0	859	0.425159990482	419
0	867	0.427429830498	420
0	869	0.428684033768	421
0	871	0.433323686294	422
0	873	0.433957616313	423
0	875	0.434202107335	424
0	877	0.434810940249	425
0	879	0.435898844683	426
0	881	0.438267762854	427
0	883	0.438573367756	428
0	885	0.438720963789	429
0	887	0.438741831008	430
0	889	0.43900218242	431
0	891	0.440422565876	432
0	893	0.442556129163	433
0	895	0.442941816857	434
0	897	0.445289660618	435
0	899	0.445773299005	436
0	901	0.44681114908	437
0	903	0.447698651008	438
0	905	0.448091224036	439
0	907	0.449869367373	440
0	909	0.450602735046	441
0	911	0.451594239339	442
0	913	0.451594294691	443
0	915	0.453655115932	444
0	917	0.454028879226	445
0	919	0.454348453881	446
0	921	0.45490262471	447
0	923	0.456502344152	448
0	925	0.458668107833	449
0	927	0.458873455602	450
0	929	0.460012513253	451
0	931	0.463065697923	452
0	933	0.463674742536	453
0	935	0.464837855819	454
0	937	0.465498358899	455
0	939	0.465741077393	456
0	941	0.467295740331	457
0	943	0.470240220608	458
0	945	0.470500860737	459
0	947	0.47181336873	460
0	949	0.473936115384	461
0	951	0.474229066842	462
0	953	0.474605496194	463
0	955	0.474845419713	464
0	959	0.478002515254	465
0	961	0.478732742919	466
0	963	0.479370931525	467
0	965	0.47939692927	468
0	967	0.480640280048	469
0	969	0.480872805066	470
0	971	0.481039679707	471
0	973	0.481592518078	472
0	975	0.482903490446	473
0	977	0.483372166922	474
0	979	0.484411372559	475
0	981	0.485034201869	476
0	983	0.485276121514	477
0	985	0.485601337532	478
0	987	0.485807695526	479
0	989	0.486691481182	480
0	991	0.488339557355	481
0	993	0.490333596556	482
0	995	0.49170827651	483
0	997	0.4918333091	484
0	999	0.4929567696	485
0	1001	0.493685293443	486
0	1003	0.494009492556	487
0	1005	0.494151134591	488
0	1007	0.494343396032	489
0	1009	0.495605208705	490
0	1011	0.49682420805	491
0	1013	0.497328487983	492
0	1015	0.497950524902	493
0	1017	0.498783903143	494
0	1019	0.500619166546	495
0	1022	0.50082162531	496
0	1025	0.501050869635	497
0	1027	0.501207345405	498
0	1029	0.501387619705	499
0	1031	0.502057160296	500
0	1033	0.502190500919	501
0	1035	0.502629956309	502
0	1037	0.503910380663	503
0	1039	0.506731016611	504
0	1041	0.506761942903	505
0	1043	0.508211497679	506
0	1045	0.509585840693	507
0	1047	0.510966803789	508
0	1049	0.511063971467	509
0	1051	0.513404463428	510
0	1053	0.513649661521	511
0	1055	0.513736770104	512
0	1057	0.51512008657	513
0	1059	0.515923478333	514
0	1061	0.517239104591	515
0	1063	0.51811731967	516
0	1065	0.518164007414	517
0	1067	0.521432503815	518
0	1069	0.521667159664	519
0	1071	0.522012679248	520
0	1073	0.522350833963	521
0	1075	0.5226263619	522
0	1077	0.523757280379	523
0	1079	0.523862967553	524
0	1081	0.523928080418	525
0	1083	0.523944646512	526
0	1085	0.524755787534	527
0	1087	0.52740834605	528
0	1089	0.527417629074	529
0	1091	0.528526038828	530
0	1093	0.530316028432	531
0	1095	0.531853857146	532
0	1097	0.536009828242	533
0	1099	0.536340738123	534
0	1101	0.537556428596	535
0	1103	0.538439309141	536
0	1105	0.538639751336	537
0	1107	0.538705843347	538
0	1109	0.539424089827	539
0	1111	0.540088897577	540
0	1113	0.540957463308	541
0	1115	0.544751487091	542
0	1117	0.54630049877	543
0	1119	0.548392055343	544
0	1121	0.549324667198	545
0	1123	0.549737397065	546
0	1125	0.549983812887	547
0	1127	0.553242733864	548
0	1129	0.553850013153	549
0	1131	0.554113590266	550
0	1133	0.55622447904	551
0	1135	0.559206679715	552
0	1137	0.559884481717	553
0	1139	0.56272112191	554
0	1141	0.563978358906	555
0	1143	0.565583817669	556
0	1145	0.566249660156	557
0	1147	0.567245123799	558
0	1149	0.568478004262	559
0	1151	0.570551765725	560
0	1153	0.571241200263	561
0	1155	0.571587953567	562
0	1157	0.57344938521	563
0	1159	0.575339486908	564
0	1161	0.575555583125	565
0	1163	0.576517595052	566
0	1165	0.578001837535	567
0	1167	0.57801516278	568
0	1169	0.581674820111	569
0	1171	0.582101355923	570
0	1173	0.584084104828	571
0	1175	0.584244438922	572
0	1177	0.585760507852	573
0	1179	0.589768457507	574
0	1181	0.593970316933	575
0	1183	0.594621114275	576
0	1185	0.596021789972	577
0	1187	0.59670973345	578
0	1189	0.596713789771	579
0	1191	0.597733976859	580
0	1193	0.598047974757	581
0	1195	0.598507766075	582
0	1197	0.599036233303	583
0	1199	0.59918345834	584
0	1201	0.59974246601	585
0	1207	0.60146909939	586
0	1209	0.601822695965	587
0	1211	0.602033229253	588
0	1213	0.602545943896	589
0	1215	0.603261989214	590
0	1217	0.603390569451	591
0	1219	0.603644580829	592
0	1221	0.607592214097	593
0	1223	0.607695182461	594
0	1225	0.608216261282	595
0	1227	0.610198151623	596
0	1229	0.611040287926	597
0	1231	0.614649228931	598
0	1233	0.615070222229	599
0	1235	0.618310185196	600
0	1237	0.619865479556	601
0	1239	0.622235867137	602
0	1241	0.622765828716	603
0	1243	0.62425325847	604
0	1245	0.624698407809	605
0	1247	0.625103590691	606
0	1249	0.625613581525	607
0	1251	0.625698161017	608
0	1259	0.626057454922	609
0	1261	0.626580422576	610
0	1263	0.62807305474	611
0	1265	0.628337325204	612
0	1267	0.630943897006	613
0	1269	0.631086022517	614
0	1271	0.631479524928	615
0	1273	0.631534432301	616
0	1275	0.63458929208	617
0	1277	0.635882439939	618
0	1279	0.63589648653	619
0	1281	0.63590797978	620
0	1283	0.636670403464	621
0	1285	0.638142607622	622
0	1287	0.638505849841	623
0	1289	0.638664783021	624
0	1291	0.640809168486	625
0	1293	0.640892030759	626
0	1295	0.641180543469	627
0	1297	0.641274418016	628
0	1299	0.642405796784	629
0	1301	0.643520684206	630
0	1303	0.645183649987	631
0	1305	0.645465174009	632
0	1307	0.646031068551	633
0	1309	0.646576726266	634
0	1311	0.647971595357	635
0	1313	0.648786613688	636
0	1315	0.650556233511	637
0	1317	0.652526291077	638
0	1319	0.65300276966	639
0	1321	0.654301215296	640
0	1323	0.65440274938	641
0	1325	0.654717909409	642
0	1327	0.655013811282	643
0	1329	0.655154779166	644
0	1331	0.656051108371	645
0	1333	0.656108074903	646
0	1335	0.656755249607	647
0	1337	0.657114210925	648
0	1339	0.657783513797	649
0	1341	0.658087485356	650
0	1343	0.658700924446	651
0	1345	0.659309988901	652
0	1347	0.660053572093	653
0	1349	0.661203313481	654
0	1351	0.661786737252	655
0	1353	0.662976233503	656
0	1355	0.664891075761	657
0	1357	0.665224479099	658
0	1359	0.665792649583	659
0	1361	0.666270567571	660
0	1363	0.668024282216	661
0	1365	0.668224137754	662
0	1367	0.66893614582	663
0	1369	0.670489891322	664
0	1371	0.670580228566	665
0	1373	0.670638756465	666
0	1375	0.671717683373	667
0	1377	0.672911696744	668
0	1379	0.673143117716	669
0	1381	0.674651332948	670
0	1383	0.676530451382	671
0	1385	0.678032864176	672
0	1387	0.679176554797	673
0	1389	0.679476879877	674
0	1391	0.679673341763	675
0	1393	0.680141448216	676
0	1395	0.680213867326	677
0	1397	0.681099627972	678
0	1399	0.681109363381	679
0	1401	0.681427947229	680
0	1403	0.683654031218	681
0	1405	0.684117421246	682
0	1407	0.684260674267	683
0	1409	0.684480142428	684
0	1411	0.685990604029	685
0	1413	0.686606523313	686
0	1415	0.689198971922	687
0	1417	0.689244609971	688
0	1419	0.690500503455	689
0	1421	0.692108921304	690
0	1423	0.692783872278	691
0	1425	0.692863951134	692
0	1427	0.69349788326	693
0	1429	0.694229428599	694
0	1431	0.696372528299	695
0	1433	0.696738979591	696
0	1435	0.697409211468	697
0	1437	0.69827087896	698
0	1439	0.698806283311	699
0	1443	0.702011092141	700
0	1445	0.702202388187	701
0	1447	0.703239633281	702
0	1449	0.703884541772	703
0	1451	0.703920544602	704
0	1453	0.705451393021	705
0	1455	0.706014218223	706
0	1457	0.706827116584	707
0	1459	0.707540500867	708
0	1461	0.707714696027	709
0	1463	0.708482949369	710
0	1465	0.708638234955	711
0	1467	0.709782030334	712
0	1469	0.710830319439	713
0	1471	0.711155490309	714
0	1473	0.711930332689	715
0	1475	0.712068285921	716
0	1477	0.712462343493	717
0	1479	0.712961035826	718
0	1481	0.713120047843	719
0	1483	0.716252877333	720
0	1485	0.71642707605	721
0	1487	0.716634261232	722
0	1489	0.716772848053	723
0	1491	0.719116087983	724
0	1493	0.719981026092	725
0	1495	0.720765863112	726
0	1497	0.720862660584	727
0	1499	0.721473143429	728
0	1501	0.72388715986	729
0	1505	0.72602458155	730
0	1507	0.726111198544	731
0	1509	0.726724802754	732
0	1511	0.728336134753	733
0	1513	0.729624096728	734
0	1515	0.731720733002	735
0	1517	0.732229935489	736
0	1519	0.732328055012	737
0	1521	0.734671924653	738
0	1523	0.735227583566	739
0	1525	0.736398847261	740
0	1527	0.737039820806	741
0	1529	0.73824253459	742
0	1531	0.739110504572	743
0	1533	0.739507585522	744
0	1535	0.740767226693	745
0	1537	0.742181010023	746
0	1539	0.742208452123	747
0	1541	0.743219221286	748
0	1543	0.744533743384	749
0	1545	0.744808206906	750
0	1547	0.746264767118	751
0	1549	0.746439762166	752
0	1551	0.746449576602	753
0	1553	0.748041132725	754
0	1555	0.748409715665	755
0	1557	0.751607970642	756
0	1559	0.751873063743	757
0	1561	0.752485809188	758
0	1563	0.753185834824	759
0	1565	0.754079836227	760
0	1567	0.75715291145	761
0	1569	0.759102888362	762
0	1571	0.759918906926	763
0	1573	0.760529964487	764
0	1575	0.76063251638	765
0	1577	0.763666458952	766
0	1579	0.764638469843	767
0	1581	0.765495904946	768
0	1583	0.767483844401	769
0	1585	0.769202913713	770
0	1587	0.76937445234	771
0	1589	0.771769632129	772
0	1591	0.776653131119	773
0	1593	0.778343366074	774
0	1595	0.778432198457	775
0	1597	0.77860585502	776
0	1599	0.778705076546	777
0	1601	0.779696356052	778
0	1603	0.780700407226	779
0	1605	0.78120862668	780
0	1607	0.784190406337	781
0	1609	0.78425517203	782
0	1611	0.787015776486	783
0	1613	0.787567480099	784
0	1615	0.788160561696	785
0	1617	0.788459890078	786
0	1619	0.789760727505	787
0	1621	0.791651456659	788
0	1623	0.793007175173	789
0	1625	0.793041047028	790
0	1627	0.793407752182	791
0	1629	0.796601514055	792
0	1631	0.796729087629	793
0	1633	0.797168164615	794
0	1635	0.797754933422	795
0	1637	0.798196088233	796
0	1639	0.798693297519	797
0	1641	0.798709760803	798
0	1643	0.799468725577	799
0	1645	0.799673577844	800
0	1649	0.801540218314	801
0	1651	0.802053145306	802
0	1653	0.802821607883	803
0	1655	0.805470796145	804
0	1657	0.806611075022	805
0	1659	0.806716007769	806
0	1661	0.807655509755	807
0	1663	0.810561429359	808
0	1665	0.810665100196	809
0	1667	0.812701394383	810
0	1669	0.812797935662	811
0	1671	0.813403369444	812
0	1673	0.813460962361	813
0	1675	0.813856527961	814
0	1677	0.813947035431	815
0	1679	0.814211970369	816
0	1681	0.81448269476	817
0	1683	0.815435817298	818
0	1685	0.817265359454	819
0	1687	0.817298993375	820
0	1689	0.818037913395	821
0	1691	0.818053642519	822
0	1693	0.818773287417	823
0	1695	0.81933329579	824
0	1697	0.820382637956	825
0	1699	0.820453139904	826
0	1701	0.821239698996	827
0	1703	0.821529972411	828
0	1705	0.821562976396	829
0	1707	0.821812927213	830
0	1709	0.822680789083	831
0	1711	0.822972735155	832
0	1713	0.82444715738	833
0	1715	0.824587633097	834
0	1717	0.825059601185	835
0	1719	0.82507171043	836
0	1721	0.8257470663	837
0	1723	0.825869781307	838
0	1731	0.829867344784	839
0	1733	0.83083093748	840
0	1735	0.831111513406	841
0	1737	0.834771075524	842
0	1739	0.835239996851	843
0	1741	0.839880276847	844
0	1743	0.839927011749	845
0	1745	0.840453042545	846
0	1747	0.840824204266	847
0	1749	0.841002081024	848
0	1751	0.842783015699	849
0	1753	0.843801233278	850
0	1755	0.845446416705	851
0	1757	0.846120360149	852
0	1759	0.847142078496	853
0	1763	0.851689902348	854
0	1765	0.852148930275	855
0	1767	0.852216464432	856
0	1769	0.852591526375	857
0	1771	0.854120465246	858
0	1773	0.855739126312	859
0	1775	0.856079363532	860
0	1777	0.856152415189	861
0	1779	0.856428720382	862
0	1781	0.857579382975	863
0	1783	0.858665586286	864
0	1785	0.85914479898	865
0	1787	0.859427245692	866
0	1789	0.860432179001	867
0	1791	0.861528371562	868
0	1793	0.864144012494	869
0	1795	0.864872390067	870
0	1797	0.866796128638	871
0	1799	0.86734793076	872
0	1801	0.868036444648	873
0	1803	0.868845424343	874
0	1805	0.869403751132	875
0	1807	0.869742097251	876
0	1809	0.871471216889	877
0	1811	0.872697349101	878
0	1813	0.874037625063	879
0	1815	0.874573523858	880
0	1817	0.875166181276	881
0	1819	0.875613321179	882
0	1821	0.87908396626	883
0	1823	0.880848053652	884
0	1825	0.88129929245	885
0	1827	0.883889118595	886
0	1829	0.884395841809	887
0	1831	0.88444294108	888
0	1833	0.885784960821	889
0	1835	0.886049743094	890
0	1837	0.886645914985	891
0	1839	0.887074422589	892
0	1841	0.889843567072	893
0	1843	0.891530785361	894
0	1845	0.891828158889	895
0	1847	0.896061174685	896
0	1849	0.896542052909	897
0	1851	0.900014908615	898
0	1855	0.901209398559	899
0	1857	0.903562733327	900
0	1859	0.905836440494	901
0	1861	0.906188207879	902
0	1863	0.906317246382	903
0	1865	0.91114696663	904
0	1867	0.911423439347	905
0	1869	0.911710348442	906
0	1871	0.911969460698	907
0	1873	0.912081405239	908
0	1875	0.912753788141	909
0	1877	0.915768756413	910
0	1879	0.917989970596	911
0	1881	0.918255787145	912
0	1883	0.918699121541	913
0	1885	0.919869557271	914
0	1887	0.920356076411	915
0	1889	0.92041620478	916
0	1891	0.922901835864	917
0	1893	0.924213798945	918
0	1895	0.924334630341	919
0	1897	0.926469332736	920
0	1899	0.92746663166	921
0	1901	0.927784686205	922
0	1903	0.927927189151	923
0	1905	0.928403704972	924
0	1907	0.928872500664	925
0	1909	0.92934137882	926
0	1911	0.92973354011	927
0	1913	0.93111499919	928
0	1915	0.932254794597	929
0	1917	0.932526350389	930
0	1919	0.934113707619	931
0	1921	0.934302272343	932
0	1923	0.935003317852	933
0	1925	0.935599867769	934
0	1927	0.935951189051	935
0	1929	0.936314267891	936
0	1931	0.938485493772	937
0	1933	0.94031302004	938
0	1935	0.940746684895	939
0	1937	0.941018154861	940
0	1939	0.942359056586	941
0	1941	0.943056994135	942
0	1943	0.943867487282	943
0	1945	0.94672491263	944
0	1947	0.946949955124	945
0	1949	0.947955070773	946
0	1951	0.948750292974	947
0	1953	0.950769877477	948
0	1955	0.951503102816	949
0	1957	0.954320014546	950
0	1959	0.954748926382	951
0	1961	0.956138284889	952
0	1963	0.956163212985	953
0	1965	0.95736577033	954
0	1967	0.957526912909	955
0	1969	0.960967856957	956
0	1971	0.96110925007	957
0	1973	0.966294379493	958
0	1975	0.967525098344	959
0	1977	0.96812625299	960
0	1979	0.969360932866	961
0	1981	0.969434439243	962
0	1983	0.970380540984	963
0	1985	0.970726974311	964
0	1987	0.971841432543	965
0	1989	0.972006725555	966
0	1991	0.972600056123	967
0	1993	0.973140458821	968
0	1995	0.974331440274	969
0	1997	0.974472185429	970
0	1999	0.974947525099	971
0	2001	0.975874163699	972
0	2004	0.975979559829	973
0	2007	0.976462135044	974
0	2009	0.979687451128	975
0	2011	0.981944927919	976
0	2013	0.982020119728	977
0	2015	0.98545574312	978
0	2017	0.985475232413	979
0	2019	0.986266841508	980
0	2021	0.990157751598	981
0	2023	0.990479091901	982
0	2025	0.990639821942	983
0	2027	0.991536874956	984
0	2029	0.991836227959	985
0	2031	0.994106938066	986
0	2033	0.994349683503	987
0	2035	0.994871794807	988
0	2037	0.995739086826	989
0	2039	0.996542223598	990
0	2041	1.000261631909	991
0	2043	1.000578609289	992
0	2047	1.000897450337	993
0	2049	1.001505235101	994
0	2051	1.005014298652	995
0	2053	1.005527984265	996
0	2055	1.005553812309	997
0	2057	1.00583938123	998
0	2059	1.008029027945	999
0	2061	1.008733977266	1000
0	2063	1.009967065993	1001
0	2065	1.010338681748	1002
0	2067	1.010664098465	1003
0	2069	1.011130962809	1004
0	2071	1.013383455679	1005
0	2073	1.01412783394	1006
0	2075	1.01415471456	1007
0	2077	1.015543391834	1008
0	2079	1.016525920177	1009
0	2081	1.016931646521	1010
0	2083	1.017331441793	1011
0	2085	1.019910554924	1012
0	2087	1.023325479826	1013
0	2089	1.025308292406	1014
0	2091	1.025492908279	1015
0	2093	1.025542823881	1016
0	2101	1.027860349944	1017
0	2103	1.028152900545	1018
0	2105	1.028553282076	1019
0	2107	1.029144117296	1020
0	2109	1.031344446616	1021
0	2111	1.031454962493	1022
0	2113	1.032173328328	1023
0	2115	1.032601769357	1024
0	2117	1.033316403544	1025
0	2119	1.034663852368	1026
0	2121	1.035152960779	1027
0	2123	1.036294004113	1028
0	2125	1.037049215931	1029
0	2127	1.038023094522	1030
0	2129	1.040918212139	1031
0	2131	1.04215791022	1032
0	2133	1.044391550071	1033
0	2135	1.044620867243	1034
0	2137	1.045751324441	1035
0	2139	1.0461694161	1036
0	2141	1.047188369281	1037
0	2143	1.048316129715	1038
0	2145	1.049111002551	1039
0	2147	1.051224909366	1040
0	2149	1.051543302382	1041
0	2151	1.052327859079	1042
0	2153	1.052488343186	1043
0	2155	1.05282060381	1044
0	2157	1.05476065202	1045