version 3
run General-0-20230511-21:02:48-19412
attr configname General
attr datetime 20230511-21:02:48
attr datetimef 20230511-210248
attr experiment General
attr inifile omnetpp.ini
attr iterationvars ""
attr iterationvarsd ""
attr iterationvarsf ""
attr measurement ""
attr network Network
attr processid 19412
attr repetition 0
attr replication #0
attr resultdir results
attr runnumber 0
attr seedset 0
config network Network
config sim-time-limit 200s
config Network.nodeTx.gen.generationInterval exponential(0.001)
config Network.queue.serviceTime exponential(0.001)
config Network.nodeTx.gen.packetByteSize 12500
config Network.queue.bufferSize 200
config Network.nodeRx.queue.bufferSize 200
config Network.nodeTx.queue.bufferSize 2000000

vector 0 Network.nodeTx.gen "Packets sent vector" ETV
vector 1 Network.nodeTx.queue "" ETV
vector 2 Network.queue1 "" ETV
vector 3 Network.nodeRx.queue "" ETV
vector 4 Network.queue2 "" ETV
vector 5 Network.nodeRx.sink "Packets received" ETV
vector 6 Network.nodeRx.sink Delay ETV
0	0	0	1
0	1	0.000795874505	2
0	5	0.001694434893	3
0	8	0.002950365651	4
0	11	0.004809969863	5
0	14	0.005733192994	6
0	17	0.00768473833	7
0	20	0.00847193947	8
0	23	0.010350903524	9
0	26	0.010901952011	10
0	29	0.011878958437	11
0	32	0.012917117738	12
0	35	0.013402245902	13
0	38	0.013977765099	14
0	41	0.014330924238	15
0	44	0.01655444866	16
0	47	0.016612833329	17
0	50	0.019927745609	18
0	53	0.02024610175	19
0	56	0.020729703855	20
0	59	0.021379150203	21
0	62	0.022948046321	22
0	65	0.024620257521	23
0	68	0.025372931634	24
0	71	0.026026814201	25
0	74	0.026866247054	26
0	77	0.027365119063	27
0	80	0.029963373149	28
0	83	0.031771742413	29
0	86	0.031845427768	30
0	89	0.032257005764	31
0	92	0.03234816679	32
0	95	0.033392779298	33
0	98	0.033413204886	34
0	101	0.033872453023	35
0	104	0.035659940686	36
0	107	0.038810110615	37
0	110	0.040315894874	38
0	113	0.040467125728	39
0	116	0.042507439986	40
0	119	0.044548332202	41
0	122	0.048393554071	42
0	125	0.049035263244	43
0	128	0.050640502801	44
0	131	0.052254504876	45
0	134	0.052873434336	46
0	137	0.053608398757	47
0	140	0.055124934731	48
0	143	0.056260873673	49
0	146	0.056386748082	50
0	149	0.057661975784	51
0	152	0.058683407658	52
0	155	0.059555728853	53
0	158	0.059710458534	54
0	161	0.060481293192	55
0	164	0.06337571367	56
0	167	0.06479707835	57
0	170	0.065534905642	58
0	173	0.065646851803	59
0	176	0.066182417523	60
0	179	0.066824112225	61
0	182	0.067131392577	62
0	185	0.067337595859	63
0	188	0.068825850685	64
0	191	0.07016114087	65
0	194	0.070770223293	66
0	197	0.071014271784	67
0	200	0.07185460649	68
0	203	0.071999884517	69
0	206	0.072018853086	70
0	209	0.072410623897	71
0	212	0.073372004836	72
0	215	0.073534141325	73
0	218	0.074481138002	74
0	221	0.074732579934	75
0	224	0.075692127911	76
0	227	0.07618068496	77
0	230	0.079058599981	78
0	233	0.081387513355	79
0	236	0.08253265231	80
0	239	0.083130398387	81
0	242	0.083575916882	82
0	245	0.084525411465	83
0	248	0.085099943872	84
0	251	0.087426294934	85
0	254	0.088622402733	86
0	257	0.088726963959	87
0	260	0.088789079249	88
0	263	0.092289292933	89
0	266	0.093388205401	90
0	269	0.094447039532	91
0	272	0.095557636978	92
0	275	0.095745063044	93
0	278	0.09598126975	94
0	281	0.096424673779	95
0	284	0.096562702467	96
0	287	0.097951745157	97
0	290	0.098330707121	98
0	293	0.099266768681	99
0	296	0.099718870741	100
0	299	0.100111983298	101
0	305	0.100956411092	102
0	308	0.100995594248	103
0	311	0.101572918559	104
0	314	0.102578789564	105
0	317	0.10703328641	106
0	320	0.110226233052	107
0	323	0.11033386816	108
0	326	0.111391694573	109
0	329	0.111625996092	110
0	332	0.112634015337	111
0	335	0.112809928882	112
0	338	0.118170029232	113
0	341	0.119228771947	114
0	344	0.120100687801	115
0	347	0.120392768334	116
0	350	0.120927833011	117
0	353	0.121555774592	118
0	356	0.122199555594	119
0	359	0.122479832602	120
0	362	0.123456696676	121
0	365	0.123629824132	122
0	368	0.124042325362	123
0	371	0.124159280772	124
0	374	0.125282449074	125
0	377	0.126350521271	126
0	380	0.126732077114	127
0	383	0.126880789383	128
0	386	0.128387424716	129
0	389	0.128606305313	130
0	392	0.131593495205	131
0	395	0.132053509163	132
0	398	0.133139778544	133
0	401	0.134860110202	134
0	404	0.13487377478	135
0	407	0.134975919662	136
0	410	0.135951021596	137
0	413	0.137770840515	138
0	416	0.138890654881	139
0	419	0.138991689656	140
0	422	0.142565278028	141
0	425	0.146314309488	142
0	428	0.148419630789	143
0	431	0.149051967385	144
0	434	0.149764550978	145
0	437	0.153526478263	146
0	440	0.153583805189	147
0	443	0.154512283686	148
0	446	0.155112230573	149
0	449	0.156456475845	150
0	452	0.156476665973	151
0	455	0.156516642272	152
0	458	0.157099520661	153
0	461	0.157431930902	154
0	464	0.161323501025	155
0	467	0.16145155779	156
0	470	0.161896977252	157
0	473	0.162248153341	158
0	476	0.162903799625	159
0	479	0.163030188261	160
0	482	0.164197061788	161
0	485	0.164579762737	162
0	488	0.166703999934	163
0	491	0.16723888431	164
0	494	0.169742796093	165
0	497	0.169809093494	166
0	500	0.170053488942	167
0	503	0.171232678469	168
0	506	0.172065521985	169
0	509	0.172901619517	170
0	512	0.17490486004	171
0	515	0.17521327488	172
0	518	0.175924522817	173
0	521	0.176665281767	174
0	524	0.179150864124	175
0	527	0.179249514432	176
0	530	0.18178981894	177
0	533	0.182647714581	178
0	536	0.182734485063	179
0	539	0.185383740992	180
0	542	0.185709081408	181
0	545	0.186092641622	182
0	548	0.186102042373	183
0	551	0.187202888283	184
0	554	0.189050215934	185
0	557	0.189191546648	186
0	560	0.190233327302	187
0	563	0.191493261112	188
0	566	0.193334543583	189
0	569	0.19367619775	190
0	572	0.193983715474	191
0	575	0.194186065913	192
0	578	0.194693266036	193
0	581	0.195576395078	194
0	584	0.196381192478	195
0	587	0.196401504937	196
0	590	0.196581757189	197
0	593	0.198347498261	198
0	596	0.198809229157	199
0	599	0.198813935697	200
0	602	0.198972277203	201
0	605	0.200104911345	202
0	610	0.200947994377	203
0	613	0.201262716038	204
0	616	0.202479224691	205
0	619	0.203807982565	206
0	622	0.204148329303	207
0	625	0.207423472481	208
0	628	0.207991376634	209
0	631	0.208277397607	210
0	634	0.209688422016	211
0	637	0.210546814984	212
0	640	0.211051158791	213
0	643	0.211947749662	214
0	646	0.214211483238	215
0	649	0.21506070405	216
0	652	0.21607936278	217
0	655	0.216331782773	218
0	658	0.218553289671	219
0	661	0.221605571328	220
0	664	0.222745179292	221
0	667	0.223337803319	222
0	670	0.223934182713	223
0	673	0.225807642593	224
0	683	0.229650649176	225
0	686	0.230852887743	226
0	689	0.23097641439	227
0	692	0.231329434523	228
0	695	0.232786253082	229
0	698	0.234467175287	230
0	701	0.234997897784	231
0	704	0.235502916532	232
0	707	0.236628198549	233
0	710	0.238757697945	234
0	713	0.239045108421	235
0	716	0.239915644247	236
0	719	0.240291383089	237
0	722	0.242426213539	238
0	725	0.245790583992	239
0	728	0.246969966926	240
0	731	0.247857828336	241
0	734	0.249149737605	242
0	737	0.250227572489	243
0	740	0.25092337195	244
0	743	0.251685239721	245
0	746	0.254810708079	246
0	749	0.255072765321	247
0	752	0.256105562332	248
0	755	0.25660787313	249
0	758	0.25715926912	250
0	761	0.258123722685	251
0	764	0.259056125565	252
0	767	0.259700230273	253
0	770	0.259719610054	254
0	773	0.26035473777	255
0	776	0.260713664986	256
0	779	0.261972708503	257
0	782	0.263052028702	258
0	785	0.263391693435	259
0	788	0.26373429306	260
0	791	0.264217928747	261
0	794	0.265180303803	262
0	797	0.26656328301	263
0	800	0.26712324408	264
0	803	0.269230691685	265
0	806	0.269376265663	266
0	809	0.269484812761	267
0	812	0.269839036893	268
0	815	0.269935959648	269
0	818	0.270779848121	270
0	821	0.271216876135	271
0	824	0.272110605213	272
0	827	0.272913157199	273
0	830	0.273767236935	274
0	833	0.273801440353	275
0	836	0.274860449738	276
0	839	0.278332985217	277
0	842	0.279388834826	278
0	845	0.279775964918	279
0	848	0.280340575419	280
0	851	0.280590656914	281
0	854	0.282859290907	282
0	857	0.283011584532	283
0	860	0.283469757416	284
0	863	0.283572078031	285
0	866	0.284144539582	286
0	869	0.288282349343	287
0	872	0.290507264	288
0	875	0.290808829913	289
0	878	0.292449727491	290
0	881	0.293219804351	291
0	884	0.294436823846	292
0	887	0.295030897344	293
0	890	0.295136509988	294
0	893	0.295241391824	295
0	896	0.297760673954	296
0	899	0.29819501961	297
0	902	0.299447627135	298
0	905	0.300081089753	299
0	910	0.306846480273	300
0	913	0.308686213058	301
0	916	0.308848083145	302
0	919	0.311198260435	303
0	922	0.313224169252	304
0	925	0.313262452165	305
0	928	0.31343977774	306
0	931	0.314149695667	307
0	934	0.315105662091	308
0	937	0.315288200693	309
0	940	0.315420384403	310
0	943	0.316930207859	311
0	946	0.318814136746	312
0	949	0.320816123242	313
0	952	0.322462842343	314
0	955	0.322992845221	315
0	958	0.323834726183	316
0	961	0.323985517193	317
0	964	0.324508387223	318
0	967	0.324542174009	319
0	970	0.324613849393	320
0	973	0.328663696232	321
0	976	0.329859134798	322
0	979	0.330326407364	323
0	982	0.330930706436	324
0	985	0.331475563564	325
0	988	0.332755897768	326
0	991	0.33280781032	327
0	994	0.334820583056	328
0	997	0.335275494901	329
0	1000	0.338985455493	330
0	1003	0.339002223259	331
0	1006	0.340938800496	332
0	1009	0.341201129805	333
0	1012	0.341212913037	334
0	1015	0.342660707119	335
0	1018	0.34310695994	336
0	1021	0.345991571692	337
0	1024	0.347300870056	338
0	1027	0.348687161408	339
0	1030	0.348875456383	340
0	1033	0.349290068926	341
0	1036	0.350026200026	342
0	1039	0.350698660543	343
0	1042	0.350754530596	344
0	1047	0.351168509519	345
0	1050	0.351391648727	346
0	1053	0.351589478234	347
0	1056	0.351608173704	348
0	1059	0.351795692655	349
0	1062	0.353374105377	350
0	1065	0.353996702721	351
0	1068	0.354250208426	352
0	1071	0.356326239486	353
0	1074	0.356749896587	354
0	1077	0.359634440875	355
0	1080	0.362266659738	356
0	1083	0.363203798456	357
0	1086	0.364422595259	358
0	1089	0.365330559286	359
0	1092	0.365362916091	360
0	1095	0.366893747317	361
0	1098	0.367073704659	362
0	1101	0.367766904429	363
0	1104	0.368738386587	364
0	1107	0.368790069493	365
0	1110	0.36965099313	366
0	1113	0.370851964037	367
0	1116	0.371123632107	368
0	1119	0.376002764995	369
0	1122	0.378724113251	370
0	1125	0.379035081056	371
0	1128	0.379986910764	372
0	1131	0.381123507259	373
0	1134	0.381890586914	374
0	1137	0.383887758881	375
0	1140	0.384779137458	376
0	1143	0.386168814522	377
0	1146	0.387478599893	378
0	1149	0.390816534227	379
0	1152	0.391190420723	380
0	1155	0.391998400776	381
0	1158	0.392506265899	382
0	1161	0.392745018772	383
0	1164	0.392980543345	384
0	1167	0.393232141958	385
0	1170	0.393438174006	386
0	1173	0.393685033275	387
0	1176	0.396574108867	388
0	1179	0.397417087642	389
0	1182	0.398762435075	390
0	1185	0.399364114062	391
0	1188	0.400038358632	392
0	1193	0.403552837313	393
0	1196	0.403810850077	394
0	1199	0.40495198798	395
0	1202	0.405245495632	396
0	1205	0.405334649922	397
0	1208	0.405394430885	398
0	1211	0.405452503247	399
0	1214	0.406022400812	400
0	1217	0.406691514536	401
0	1220	0.40706518433	402
0	1223	0.409193854425	403
0	1226	0.410385712529	404
0	1229	0.414132407143	405
0	1232	0.414606823433	406
0	1235	0.415568263005	407
0	1238	0.41576623074	408
0	1241	0.416548206461	409
0	1244	0.416573194814	410
0	1247	0.418501554951	411
0	1250	0.418571172622	412
0	1253	0.419933104346	413
0	1256	0.421070642852	414
0	1259	0.421721873584	415
0	1262	0.422326454802	416
0	1265	0.423456810348	417
0	1268	0.424225930149	418
0	1271	0.425159990482	419
0	1280	0.427429830498	420
0	1283	0.428684033768	421
0	1286	0.433323686294	422
0	1289	0.433957616313	423
0	1292	0.434202107335	424
0	1295	0.434810940249	425
0	1298	0.435898844683	426
0	1301	0.438267762854	427
0	1304	0.438573367756	428
0	1307	0.438720963789	429
0	1310	0.438741831008	430
0	1313	0.43900218242	431
0	1316	0.440422565876	432
0	1319	0.442556129163	433
0	1322	0.442941816857	434
0	1325	0.445289660618	435
0	1328	0.445773299005	436
0	1331	0.44681114908	437
0	1334	0.447698651008	438
0	1337	0.448091224036	439
0	1340	0.449869367373	440
0	1343	0.450602735046	441
0	1346	0.451594239339	442
0	1349	0.451594294691	443
0	1352	0.453655115932	444
0	1355	0.454028879226	445
0	1358	0.454348453881	446
0	1361	0.45490262471	447
0	1364	0.456502344152	448
0	1367	0.458668107833	449
0	1370	0.458873455602	450
0	1373	0.460012513253	451
0	1376	0.463065697923	452
0	1379	0.463674742536	453
0	1382	0.464837855819	454
0	1385	0.465498358899	455
0	1388	0.465741077393	456
0	1391	0.467295740331	457
0	1394	0.470240220608	458
0	1397	0.470500860737	459
0	1400	0.47181336873	460
0	1403	0.473936115384	461
0	1406	0.474229066842	462
0	1409	0.474605496194	463
0	1412	0.474845419713	464
0	1417	0.478002515254	465
0	1420	0.478732742919	466
0	1423	0.479370931525	467
0	1426	0.47939692927	468
0	1429	0.480640280048	469
0	1432	0.480872805066	470
0	1435	0.481039679707	471
0	1438	0.481592518078	472
0	1441	0.482903490446	473
0	1444	0.483372166922	474
0	1447	0.484411372559	475
0	1450	0.485034201869	476
0	1453	0.485276121514	477
0	1456	0.485601337532	478
0	1459	0.485807695526	479
0	1462	0.486691481182	480
0	1465	0.488339557355	481
0	1468	0.490333596556	482
0	1471	0.49170827651	483
0	1474	0.4918333091	484
0	1477	0.4929567696	485
0	1480	0.493685293443	486
0	1483	0.494009492556	487
0	1486	0.494151134591	488
0	1489	0.494343396032	489
0	1492	0.495605208705	490
0	1495	0.49682420805	491
0	1498	0.497328487983	492
0	1501	0.497950524902	493
0	1504	0.498783903143	494
0	1507	0.500619166546	495
0	1511	0.50082162531	496
0	1515	0.501050869635	497
0	1518	0.501207345405	498
0	1521	0.501387619705	499
0	1524	0.502057160296	500
0	1527	0.502190500919	501
0	1530	0.502629956309	502
0	1533	0.503910380663	503
0	1536	0.506731016611	504
0	1539	0.506761942903	505
0	1542	0.508211497679	506
0	1545	0.509585840693	507
0	1548	0.510966803789	508
0	1551	0.511063971467	509
0	1554	0.513404463428	510
0	1557	0.513649661521	511
0	1560	0.513736770104	512
0	1563	0.51512008657	513
0	1566	0.515923478333	514
0	1569	0.517239104591	515
0	1572	0.51811731967	516
0	1575	0.518164007414	517
0	1578	0.521432503815	518
0	1581	0.521667159664	519
0	1584	0.522012679248	520
0	1587	0.522350833963	521
0	1590	0.5226263619	522
0	1593	0.523757280379	523
0	1596	0.523862967553	524
0	1599	0.523928080418	525
0	1602	0.523944646512	526
0	1605	0.524755787534	527
0	1608	0.52740834605	528
0	1611	0.527417629074	529
0	1614	0.528526038828	530
0	1617	0.530316028432	531
0	1620	0.531853857146	532
0	1623	0.536009828242	533
0	1626	0.536340738123	534
0	1629	0.537556428596	535
0	1632	0.538439309141	536
0	1635	0.538639751336	537
0	1638	0.538705843347	538
0	1641	0.539424089827	539
0	1644	0.540088897577	540
0	1647	0.540957463308	541
0	1650	0.544751487091	542
0	1653	0.54630049877	543
0	1656	0.548392055343	544
0	1659	0.549324667198	545
0	1662	0.549737397065	546
0	1665	0.549983812887	547
0	1668	0.553242733864	548
0	1671	0.553850013153	549
0	1674	0.554113590266	550
0	1677	0.55622447904	551
0	1680	0.559206679715	552
0	1683	0.559884481717	553
0	1686	0.56272112191	554
0	1689	0.563978358906	555
0	1692	0.565583817669	556
0	1695	0.566249660156	557
0	1698	0.567245123799	558
0	1701	0.568478004262	559
0	1704	0.570551765725	560
0	1707	0.571241200263	561
0	1710	0.571587953567	562
0	1713	0.57344938521	563
0	1716	0.575339486908	564
0	1719	0.575555583125	565
0	1722	0.576517595052	566
0	1725	0.578001837535	567
0	1728	0.57801516278	568
0	1731	0.581674820111	569
0	1734	0.582101355923	570
0	1737	0.584084104828	571
0	1740	0.584244438922	572
0	1743	0.585760507852	573
0	1746	0.589768457507	574
0	1749	0.593970316933	575
0	1752	0.594621114275	576
0	1755	0.596021789972	577
0	1758	0.59670973345	578
0	1761	0.596713789771	579
0	1764	0.597733976859	580
0	1767	0.598047974757	581
0	1770	0.598507766075	582
0	1773	0.599036233303	583
0	1776	0.59918345834	584
0	1779	0.59974246601	585
0	1786	0.60146909939	586
0	1789	0.601822695965	587
0	1792	0.602033229253	588
0	1795	0.602545943896	589
0	1798	0.603261989214	590
0	1801	0.603390569451	591
0	1804	0.603644580829	592
0	1807	0.607592214097	593
0	1810	0.607695182461	594
0	1813	0.608216261282	595
0	1816	0.610198151623	596
0	1819	0.611040287926	597
0	1822	0.614649228931	598
0	1825	0.615070222229	599
0	1828	0.618310185196	600
0	1831	0.619865479556	601
0	1834	0.622235867137	602
0	1837	0.622765828716	603
0	1840	0.62425325847	604
0	1843	0.624698407809	605
0	1846	0.625103590691	606
0	1849	0.625613581525	607
0	1852	0.625698161017	608
0	1861	0.626057454922	609
0	1864	0.626580422576	610
0	1867	0.62807305474	611
0	1870	0.628337325204	612
0	1873	0.630943897006	613
0	1876	0.631086022517	614
0	1879	0.631479524928	615
0	1882	0.631534432301	616
0	1885	0.63458929208	617
0	1888	0.635882439939	618
0	1891	0.63589648653	619
0	1894	0.63590797978	620
0	1897	0.636670403464	621
0	1900	0.638142607622	622
0	1903	0.638505849841	623
0	1906	0.638664783021	624
0	1909	0.640809168486	625
0	1912	0.640892030759	626
0	1915	0.641180543469	627
0	1918	0.641274418016	628
0	1921	0.642405796784	629
0	1924	0.643520684206	630
0	1927	0.645183649987	631
0	1930	0.645465174009	632
0	1933	0.646031068551	633
0	1936	0.646576726266	634
0	1939	0.647971595357	635
0	1942	0.648786613688	636
0	1945	0.650556233511	637
0	1948	0.652526291077	638
0	1951	0.65300276966	639
0	1954	0.654301215296	640
0	1957	0.65440274938	641
0	1960	0.654717909409	642
0	1963	0.655013811282	643
0	1966	0.655154779166	644
0	1969	0.656051108371	645
0	1972	0.656108074903	646
0	1975	0.656755249607	647
0	1978	0.657114210925	648
0	1981	0.657783513797	649
0	1984	0.658087485356	650
0	1987	0.658700924446	651
0	1990	0.659309988901	652
0	1993	0.660053572093	653
0	1996	0.661203313481	654
0	1999	0.661786737252	655
0	2002	0.662976233503	656
0	2005	0.664891075761	657
0	2008	0.665224479099	658
0	2011	0.665792649583	659
0	2014	0.666270567571	660
0	2017	0.668024282216	661
0	2020	0.668224137754	662
0	2023	0.66893614582	663
0	2026	0.670489891322	664
0	2029	0.670580228566	665
0	2032	0.670638756465	666
0	2035	0.671717683373	667
0	2038	0.672911696744	668
0	2041	0.673143117716	669
0	2044	0.674651332948	670
0	2047	0.676530451382	671
0	2050	0.678032864176	672
0	2053	0.679176554797	673
0	2056	0.679476879877	674
0	2059	0.679673341763	675
0	2062	0.680141448216	676
0	2065	0.680213867326	677
0	2068	0.681099627972	678
0	2071	0.681109363381	679
0	2074	0.681427947229	680
0	2077	0.683654031218	681
0	2080	0.684117421246	682
0	2083	0.684260674267	683
0	2086	0.684480142428	684
0	2089	0.685990604029	685
0	2092	0.686606523313	686
0	2095	0.689198971922	687
0	2098	0.689244609971	688
0	2101	0.690500503455	689
0	2104	0.692108921304	690
0	2107	0.692783872278	691
0	2110	0.692863951134	692
0	2113	0.69349788326	693
0	2116	0.694229428599	694
0	2119	0.696372528299	695
0	2122	0.696738979591	696
0	2125	0.697409211468	697
0	2128	0.69827087896	698
0	2131	0.698806283311	699
0	2136	0.702011092141	700
0	2139	0.702202388187	701
0	2142	0.703239633281	702
0	2145	0.703884541772	703
0	2148	0.703920544602	704
0	2151	0.705451393021	705
0	2154	0.706014218223	706
0	2157	0.706827116584	707
0	2160	0.707540500867	708
0	2163	0.707714696027	709
0	2166	0.708482949369	710
0	2169	0.708638234955	711
0	2172	0.709782030334	712
0	2175	0.710830319439	713
0	2178	0.711155490309	714
0	2181	0.711930332689	715
0	2184	0.712068285921	716
0	2187	0.712462343493	717
0	2190	0.712961035826	718
0	2193	0.713120047843	719
0	2196	0.716252877333	720
0	2199	0.71642707605	721
0	2202	0.716634261232	722
0	2205	0.716772848053	723
0	2208	0.719116087983	724
0	2211	0.719981026092	725
0	2214	0.720765863112	726
0	2217	0.720862660584	727
0	2220	0.721473143429	728
0	2223	0.72388715986	729
0	2228	0.72602458155	730
0	2231	0.726111198544	731
0	2234	0.726724802754	732
0	2237	0.728336134753	733
0	2240	0.729624096728	734
0	2243	0.731720733002	735
0	2246	0.732229935489	736
0	2249	0.732328055012	737
0	2252	0.734671924653	738
0	2255	0.735227583566	739
0	2258	0.736398847261	740
0	2261	0.737039820806	741
0	2264	0.73824253459	742
0	2267	0.739110504572	743
0	2270	0.739507585522	744
0	2273	0.740767226693	745
0	2276	0.742181010023	746
0	2279	0.742208452123	747
0	2282	0.743219221286	748
0	2285	0.744533743384	749
0	2288	0.744808206906	750
0	2291	0.746264767118	751
0	2294	0.746439762166	752
0	2297	0.746449576602	753
0	2300	0.748041132725	754
0	2303	0.748409715665	755
0	2306	0.751607970642	756
0	2309	0.751873063743	757
0	2312	0.752485809188	758
0	2315	0.753185834824	759
0	2318	0.754079836227	760
0	2321	0.75715291145	761
0	2324	0.759102888362	762
0	2327	0.759918906926	763
0	2330	0.760529964487	764
0	2333	0.76063251638	765
0	2336	0.763666458952	766
0	2339	0.764638469843	767
0	2342	0.765495904946	768
0	2345	0.767483844401	769
0	2348	0.769202913713	770
0	2351	0.76937445234	771
0	2354	0.771769632129	772
0	2357	0.776653131119	773
0	2360	0.778343366074	774
0	2363	0.778432198457	775
0	2366	0.77860585502	776
0	2369	0.778705076546	777
0	2372	0.779696356052	778
0	2375	0.780700407226	779
0	2378	0.78120862668	780
0	2381	0.784190406337	781
0	2384	0.78425517203	782
0	2387	0.787015776486	783
0	2390	0.787567480099	784
0	2393	0.788160561696	785
0	2396	0.788459890078	786
0	2399	0.789760727505	787
0	2402	0.791651456659	788
0	2405	0.793007175173	789
0	2408	0.793041047028	790
0	2411	0.793407752182	791
0	2414	0.796601514055	792
0	2417	0.796729087629	793
0	2420	0.797168164615	794
0	2423	0.797754933422	795
0	2426	0.798196088233	796
0	2429	0.798693297519	797
0	2432	0.798709760803	798
0	2435	0.799468725577	799
0	2438	0.799673577844	800
0	2443	0.801540218314	801
0	2446	0.802053145306	802
0	2449	0.802821607883	803
0	2452	0.805470796145	804
0	2455	0.806611075022	805
0	2458	0.806716007769	806
0	2461	0.807655509755	807
0	2464	0.810561429359	808
0	2467	0.810665100196	809
0	2470	0.812701394383	810
0	2473	0.812797935662	811
0	2476	0.813403369444	812
0	2479	0.813460962361	813
0	2482	0.813856527961	814
0	2485	0.813947035431	815
0	2488	0.814211970369	816
0	2491	0.81448269476	817
0	2494	0.815435817298	818
0	2497	0.817265359454	819
0	2500	0.817298993375	820
0	2503	0.818037913395	821
0	2506	0.818053642519	822
0	2509	0.818773287417	823
0	2512	0.81933329579	824
0	2515	0.820382637956	825
0	2518	0.820453139904	826
0	2521	0.821239698996	827
0	2524	0.821529972411	828
0	2527	0.821562976396	829
0	2530	0.821812927213	830
0	2533	0.822680789083	831
0	2536	0.822972735155	832
0	2539	0.82444715738	833
0	2542	0.824587633097	834
0	2545	0.825059601185	835
0	2548	0.82507171043	836
0	2551	0.8257470663	837
0	2554	0.825869781307	838
0	2563	0.829867344784	839
0	2566	0.83083093748	840
0	2569	0.831111513406	841
0	2572	0.834771075524	842
0	2575	0.835239996851	843
0	2578	0.839880276847	844
0	2581	0.839927011749	845
0	2584	0.840453042545	846
0	2587	0.840824204266	847
0	2590	0.841002081024	848
0	2593	0.842783015699	849
0	2596	0.843801233278	850
0	2599	0.845446416705	851
0	2602	0.846120360149	852
0	2605	0.847142078496	853
0	2610	0.851689902348	854
0	2613	0.852148930275	855
0	2616	0.852216464432	856
0	2619	0.852591526375	857
0	2622	0.854120465246	858
0	2625	0.855739126312	859
0	2628	0.856079363532	860
0	2631	0.856152415189	861
0	2634	0.856428720382	862
0	2637	0.857579382975	863
0	2640	0.858665586286	864
0	2643	0.85914479898	865
0	2646	0.859427245692	866
0	2649	0.860432179001	867
0	2652	0.861528371562	868
0	2655	0.864144012494	869
0	2658	0.864872390067	870
0	2661	0.866796128638	871
0	2664	0.86734793076	872
0	2667	0.868036444648	873
0	2670	0.868845424343	874
0	2673	0.869403751132	875
0	2676	0.869742097251	876
0	2679	0.871471216889	877
0	2682	0.872697349101	878
0	2685	0.874037625063	879
0	2688	0.874573523858	880
0	2691	0.875166181276	881
0	2694	0.875613321179	882
0	2697	0.87908396626	883
0	2700	0.880848053652	884
0	2703	0.88129929245	885
0	2706	0.883889118595	886
0	2709	0.884395841809	887
0	2712	0.88444294108	888
0	2715	0.885784960821	889
0	2718	0.886049743094	890
0	2721	0.886645914985	891
0	2724	0.887074422589	892
0	2727	0.889843567072	893
0	2730	0.891530785361	894
0	2733	0.891828158889	895
0	2736	0.896061174685	896
0	2739	0.896542052909	897
0	2742	0.900014908615	898
0	2747	0.901209398559	899
0	2750	0.903562733327	900
0	2753	0.905836440494	901
0	2756	0.906188207879	902
0	2759	0.906317246382	903
0	2762	0.91114696663	904
0	2765	0.911423439347	905
0	2768	0.911710348442	906
0	2771	0.911969460698	907
0	2774	0.912081405239	908
0	2777	0.912753788141	909
0	2780	0.915768756413	910
0	2783	0.917989970596	911
0	2786	0.918255787145	912
0	2789	0.918699121541	913
0	2792	0.919869557271	914
0	2795	0.920356076411	915
0	2798	0.92041620478	916
0	2801	0.922901835864	917
0	2804	0.924213798945	918
0	2807	0.924334630341	919
0	2810	0.926469332736	920
0	2813	0.92746663166	921
0	2816	0.927784686205	922
0	2819	0.927927189151	923
0	2822	0.928403704972	924
0	2825	0.928872500664	925
0	2828	0.92934137882	926
0	2831	0.92973354011	927
0	2834	0.93111499919	928
0	2837	0.932254794597	929
0	2840	0.932526350389	930
0	2843	0.934113707619	931
0	2846	0.934302272343	932
0	2849	0.935003317852	933
0	2852	0.935599867769	934
0	2855	0.935951189051	935
0	2858	0.936314267891	936
0	2861	0.938485493772	937
0	2864	0.94031302004	938
0	2867	0.940746684895	939
0	2870	0.941018154861	940
0	2873	0.942359056586	941
0	2876	0.943056994135	942
0	2879	0.943867487282	943
0	2882	0.94672491263	944
0	2885	0.946949955124	945
0	2888	0.947955070773	946
0	2891	0.948750292974	947
0	2894	0.950769877477	948
0	2897	0.951503102816	949
0	2900	0.954320014546	950
0	2903	0.954748926382	951
0	2906	0.956138284889	952
0	2909	0.956163212985	953
0	2912	0.95736577033	954
0	2915	0.957526912909	955
0	2918	0.960967856957	956
0	2921	0.96110925007	957
0	2924	0.966294379493	958
0	2927	0.967525098344	959
0	2930	0.96812625299	960
0	2933	0.969360932866	961
0	2936	0.969434439243	962
0	2939	0.970380540984	963
0	2942	0.970726974311	964
0	2945	0.971841432543	965
0	2948	0.972006725555	966
0	2951	0.972600056123	967
0	2954	0.973140458821	968
0	2957	0.974331440274	969
0	2960	0.974472185429	970
0	2963	0.974947525099	971
0	2966	0.975874163699	972
0	2970	0.975979559829	973
0	2974	0.976462135044	974
0	2977	0.979687451128	975
0	2980	0.981944927919	976
0	2983	0.982020119728	977
0	2986	0.98545574312	978
0	2989	0.985475232413	979
0	2992	0.986266841508	980
0	2995	0.990157751598	981
0	2998	0.990479091901	982
0	3001	0.990639821942	983
0	3004	0.991536874956	984
0	3007	0.991836227959	985
0	3010	0.994106938066	986
0	3013	0.994349683503	987
0	3016	0.994871794807	988
0	3019	0.995739086826	989
0	3022	0.996542223598	990
0	3025	1.000261631909	991
0	3028	1.000578609289	992
0	3033	1.000897450337	993
0	3036	1.001505235101	994
0	3039	1.005014298652	995
0	3042	1.005527984265	996
0	3045	1.005553812309	997
0	3048	1.00583938123	998
0	3051	1.008029027945	999
0	3054	1.008733977266	1000
0	3057	1.009967065993	1001
0	3060	1.010338681748	1002
0	3063	1.010664098465	1003
0	3066	1.011130962809	1004
0	3069	1.013383455679	1005
0	3072	1.01412783394	1006
0	3075	1.01415471456	1007
0	3078	1.015543391834	1008
0	3081	1.016525920177	1009
0	3084	1.016931646521	1010
0	3087	1.017331441793	1011
0	3090	1.019910554924	1012
0	3093	1.023325479826	1013
0	3096	1.025308292406	1014
0	3099	1.025492908279	1015
0	3102	1.025542823881	1016
0	3111	1.027860349944	1017
0	3114	1.028152900545	1018
0	3117	1.028553282076	1019
0	3120	1.029144117296	1020
0	3123	1.031344446616	1021
0	3126	1.031454962493	1022
0	3129	1.032173328328	1023
0	3132	1.032601769357	1024
0	3135	1.033316403544	1025
0	3138	1.034663852368	1026
0	3141	1.035152960779	1027
0	3144	1.036294004113	1028
0	3147	1.037049215931	1029
0	3150	1.038023094522	1030
0	3153	1.040918212139	1031
0	3156	1.04215791022	1032
0	3159	1.044391550071	1033
0	3162	1.044620867243	1034
0	3165	1.045751324441	1035
0	3168	1.0461694161	1036
0	3171	1.047188369281	1037
0	3174	1.048316129715	1038
0	3177	1.049111002551	1039
0	3180	1.051224909366	1040
0	3183	1.051543302382	1041
0	3186	1.052327859079	1042
0	3189	1.052488343186	1043
0	3192	1.05282060381	1044
0	3195	1.05476065202	1045
0	3198	1.054791353793	1046
0	3201	1.055799367333	1047
0	3204	1.05703840384	1048
0	3207	1.057394569622	1049
0	3210	1.057402484969	1050
0	3213	1.058019078058	1051
0	3216	1.058485375084	1052
0	3219	1.058510208292	1053
0	3222	1.05926637454	1054
0	3225	1.060082967229	1055
0	3228	1.062635443723	1056
0	3231	1.063083531691	1057
0	3234	1.063177287079	1058
0	3237	1.063875868085	1059
0	3240	1.06439664695	1060
0	3243	1.064563442708	1061
0	3246	1.064588056352	1062
0	3249	1.065142324825	1063
0	3252	1.065561804148	1064
0	3255	1.067928094412	1065
0	3258	1.068901566956	1066
0	3261	1.068910114975	1067
0	3264	1.069237325356	1068
0	3267	1.072706719195	1069
0	3270	1.072942125062	1070
0	3273	1.074116195199	1071
0	3276	1.074239157766	1072
0	3279	1.074343870039	1073
0	3282	1.075204584747	1074
0	3285	1.075546759439	1075
0	3288	1.076735088599	1076
0	3291	1.077509605387	1077
0	3294	1.07862421639	1078
0	3297	1.079912106629	1079
0	3300	1.082885314968	1080
0	3303	1.083377756344	1081
0	3306	1.083380463219	1082
0	3309	1.083638048085	1083
0	3312	1.08467989255	1084
0	3315	1.085286604959	1085
0	3318	1.086203876756	1086
0	3321	1.089782378482	1087
0	3324	1.090670907194	1088
0	3327	1.092465580308	1089
0	3330	1.095756229138	1090
0	3333	1.098218873407	1091
0	3336	1.098235889031	1092
0	3339	1.099336357561	1093
0	3342	1.100528673335	1094
0	3349	1.10110968199	1095
0	3352	1.10278996439	1096
0	3355	1.103945439119	1097
0	3358	1.104658395598	1098
0	3361	1.105704220891	1099
0	3364	1.106110633758	1100
0	3367	1.106140165569	1101
0	3370	1.10770482212	1102
0	3373	1.110224710814	1103
0	3376	1.110327012595	1104
0	3379	1.111108897018	1105
0	3382	1.11169235719	1106
0	3385	1.116418752387	1107
0	3388	1.117152622354	1108
0	3391	1.117635675378	1109
0	3394	1.118819703114	1110
0	3397	1.120463056349	1111
0	3400	1.120558340832	1112
0	3403	1.121176393209	1113
0	3406	1.121434852458	1114
0	3409	1.123188300576	1115
0	3412	1.123716444567	1116
0	3415	1.124491058303	1117
0	3418	1.125467350326	1118
0	3421	1.127650064215	1119
0	3424	1.129830084662	1120
0	3427	1.131951239119	1121
0	3430	1.132915738881	1122
0	3433	1.133313687276	1123
0	3436	1.13345693598	1124
0	3439	1.133975163828	1125
0	3442	1.137916622513	1126
0	3445	1.138703305628	1127
0	3448	1.140757358112	1128
0	3451	1.14172940708	1129
0	3454	1.142428010647	1130
0	3457	1.142905008398	1131
0	3460	1.145460526115	1132