<<<<<<< HEAD
file 212559 1684080263                                          
version 3
run General-0-20230514-13:03:31-2218
attr configname General
attr datetime 20230514-13:03:31
attr datetimef 20230514-130331
=======
file 127877 1684206626                                          
version 3
run General-0-20230516-00:10:17-94018
attr configname General
attr datetime 20230516-00:10:17
attr datetimef 20230516-001017
>>>>>>> 89ae918b948b635d27b5b1e5ab4cce2cd486d029
attr experiment General
attr inifile omnetpp.ini
attr iterationvars ""
attr iterationvarsd ""
attr iterationvarsf ""
attr measurement ""
attr network Network
<<<<<<< HEAD
attr processid 2218
=======
attr processid 94018
>>>>>>> 89ae918b948b635d27b5b1e5ab4cce2cd486d029
attr repetition 0
attr replication #0
attr resultdir results
attr runnumber 0
attr seedset 0
config network Network
config sim-time-limit 200s
config Network.nodeTx.gen.generationInterval exponential(0.2)
config Network.nodeTx.gen.packetByteSize 12500
<<<<<<< HEAD
config Network.queue1.bufferSize 200
config Network.queue2.bufferSize 200
config Network.queue2.serviceTime exponential(1)
config Network.queue1.serviceTime exponential(1)
=======
config Network.queue1.serviceTime 0
config Network.queue2.serviceTime 0
config Network.queue1.bufferSize 200
config Network.queue2.bufferSize 200
>>>>>>> 89ae918b948b635d27b5b1e5ab4cce2cd486d029
config Network.nodeRx.queue.bufferSize 200
config Network.nodeTx.queue.bufferSize 20000

<<<<<<< HEAD
vector 0 Network.nodeTx.gen "Packets sent vector" ETV
vector 1 Network.queue2 "" ETV
vector 2 Network.nodeTx.queue "" ETV
vector 3 Network.queue1 "" ETV
0	1034 2366 0 210 0 0.100956411092 102 1 102 5253 358955
1	3400 15 1 1 0.000001 0.000001 1 1 1 1 1
2	3415 2355 7 211 0.000795874505 0.100956411092 101 1 99 5050 338152
3	5770 23 208 208 0.100895874505 0.100895874505 1 1 1 1 1
vector 4 Network.nodeRx.queue "" ETV
vector 5 Network.nodeRx.sink "Packets received" ETV
vector 6 Network.nodeRx.sink Delay ETV
0	5921 101722 212 8123 0.100995594248 4.014797872789 3830 103 3932 7727025 20271096535
1	107643 454 461 7731 0.225996874505 3.825996874505 19 1 1 19 19
2	108097 101684 213 8122 0.100995594248 4.014263832773 3829 100 3889 7638861 19822185083
3	209781 933 413 8092 0.200895874505 4.000895874505 39 1 8 172 956
4	210714 747 459 8052 0.225995874505 3.975995874505 31 1 12 189 1497
5	211461 440 861 7729 0.425995874505 3.825995874505 18 1 18 171 2109
6	211901 657 861 7729 0.425995874505 3.825995874505 18 0.4252 3.805749772755 38.074684229087 99.705318800747
=======
vector 0 Network.nodeTx.gen "Packets Generated" ETV
vector 1 Network.nodeTx.queue "Buffer Size" ETV
vector 2 Network.queue1 "Buffer Size" ETV
vector 3 Network.nodeRx.queue "Buffer Size" ETV
vector 4 Network.queue2 "Buffer Size" ETV
vector 5 Network.nodeRx.sink "Packets received" ETV
vector 6 Network.nodeRx.sink Delay ETV
0	1124 26847 1 8696 0.159174900913 199.308444720664 989 1 989 489555 322943115
1	27971 26069 2 8697 0.159174900913 199.308444720664 989 1 478 171464 62575132
2	54040 13336 5 8733 0.259274900913 199.867429731416 534 1 1 534 534
3	67376 13338 11 8743 0.359374900913 199.967529731416 534 1 9 3639 28681
4	80714 13150 13 8737 0.359375900913 199.967328731416 525 1 10 615 1275
5	93864 14063 22 8735 0.559374900913 199.967327731416 524 1 524 137550 48096650
6	107927 19949 22 8735 0.559374900913 199.967327731416 524 0.4002 95.181711647169 13290.853874705 1182001.7049286
>>>>>>> 89ae918b948b635d27b5b1e5ab4cce2cd486d029

